 vasp.6.0.8 29Jun18 (build Mar 14 2019 11:44:20) complex                        
  
 executed on             LinuxIFC date 2021.02.02  21:30:34
 running   64 mpi-ranks, with    1 threads/rank
 distrk:  each k-point on   16 cores,    4 groups
 distr:  one band on NCORES_PER_BAND=   4 cores,    4 groups


--------------------------------------------------------------------------------------------------------


 INCAR:
 POTCAR:    PAW_PBE Ge 05Jan2001                  
 POTCAR:    PAW_PBE Sb 06Sep2000                  
 POTCAR:    PAW_PBE Te 08Apr2002                  
 POTCAR:    PAW_PBE Ge 05Jan2001                  
   VRHFIN =Ge: s2p2                                                             
   LEXCH  = PE                                                                  
   EATOM  =   104.9960 eV,    7.7170 Ry                                         
                                                                                
   TITEL  = PAW_PBE Ge 05Jan2001                                                
   LULTRA =        F    use ultrasoft PP ?                                      
   IUNSCR =        1    unscreen: 0-lin 1-nonlin 2-no                           
   RPACOR =    2.170    partial core radius                                     
   POMASS =   72.610; ZVAL   =    4.000    mass and valenz                      
   RCORE  =    2.300    outmost cutoff radius                                   
   RWIGS  =    2.300; RWIGS  =    1.217    wigner-seitz radius (au A)           
   ENMAX  =  173.807; ENMIN  =  130.355 eV                                      
   ICORE  =        3    local potential                                         
   LCOR   =        T    correct aug charges                                     
   LPAW   =        T    paw PP                                                  
   EAUG   =  385.843                                                            
   DEXC   =    0.000                                                            
   RMAX   =    2.342    core radius for proj-oper                               
   RAUG   =    1.300    factor for augmentation sphere                          
   RDEP   =    2.318    radius for radial grids                                 
   RDEPT  =    2.103    core radius for aug-charge                              
                                                                                
   Atomic configuration                                                         
   10 entries                                                                   
     n  l   j            E        occ.                                          
     1  0  0.50    -10959.8463   2.0000                                         
     2  0  0.50     -1371.6056   2.0000                                         
     2  1  1.50     -1198.4791   6.0000                                         
     3  0  0.50      -168.4733   2.0000                                         
     3  1  1.50      -115.6019   6.0000                                         
     3  2  2.50       -29.3106  10.0000                                         
     4  0  0.50       -11.7309   2.0000                                         
     4  1  0.50        -3.8952   2.0000                                         
     4  2  1.50        -4.0817   0.0000                                         
     4  3  2.50        -4.0817   0.0000                                         
   Description                                                                  
     l       E           TYP  RCUT    TYP  RCUT                                 
     0    -11.7309493     23  2.300                                             
     0     -7.4578696     23  2.300                                             
     1     -3.8952261     23  2.300                                             
     1      6.1178114     23  2.300                                             
     2     -4.0817478     23  2.300                                             
     3     -1.3605826      7  2.300                                             
  local pseudopotential read in
  partial core-charges read in
  partial kinetic energy density read in
  atomic valenz-charges read in
  non local Contribution for L=           0  read in
    real space projection operators read in
  non local Contribution for L=           0  read in
    real space projection operators read in
  non local Contribution for L=           1  read in
    real space projection operators read in
  non local Contribution for L=           1  read in
    real space projection operators read in
  non local Contribution for L=           2  read in
    real space projection operators read in
    PAW grid and wavefunctions read in
 
   number of l-projection  operators is LMAX  =           5
   number of lm-projection operators is LMMAX =          13
 
 POTCAR:    PAW_PBE Sb 06Sep2000                  
   VRHFIN =Sb: s2p3                                                             
   LEXCH  = PE                                                                  
   EATOM  =   149.9515 eV,   11.0211 Ry                                         
                                                                                
   TITEL  = PAW_PBE Sb 06Sep2000                                                
   LULTRA =        F    use ultrasoft PP ?                                      
   IUNSCR =        1    unscreen: 0-lin 1-nonlin 2-no                           
   RPACOR =    2.200    partial core radius                                     
   POMASS =  121.750; ZVAL   =    5.000    mass and valenz                      
   RCORE  =    2.300    outmost cutoff radius                                   
   RWIGS  =    2.980; RWIGS  =    1.577    wigner-seitz radius (au A)           
   ENMAX  =  172.069; ENMIN  =  129.052 eV                                      
   ICORE  =        3    local potential                                         
   LCOR   =        T    correct aug charges                                     
   LPAW   =        T    paw PP                                                  
   EAUG   =  380.513                                                            
   DEXC   =    0.000                                                            
   RMAX   =    2.346    core radius for proj-oper                               
   RAUG   =    1.300    factor for augmentation sphere                          
   RDEP   =    2.360    radius for radial grids                                 
   RDEPT  =    2.192    core radius for aug-charge                              
                                                                                
   Atomic configuration                                                         
   13 entries                                                                   
     n  l   j            E        occ.                                          
     1  0  0.50    -30298.2797   2.0000                                         
     2  0  0.50     -4610.2252   2.0000                                         
     2  1  1.50     -4138.3407   6.0000                                         
     3  0  0.50      -903.8815   2.0000                                         
     3  1  1.50      -750.1337   6.0000                                         
     3  2  2.50      -515.7092  10.0000                                         
     4  0  0.50      -148.8034   2.0000                                         
     4  1  1.50      -101.7581   6.0000                                         
     4  2  2.50       -33.5048  10.0000                                         
     5  0  0.50       -12.8298   2.0000                                         
     5  1  0.50        -4.8276   3.0000                                         
     5  2  1.50        -4.0817   0.0000                                         
     4  3  2.50        -4.0817   0.0000                                         
   Description                                                                  
     l       E           TYP  RCUT    TYP  RCUT                                 
     0    -12.8297861     23  2.300                                             
     0     13.6058260     23  2.300                                             
     1     -4.8275512     23  2.300                                             
     1     -0.7245443     23  2.300                                             
     2     -4.0817478     23  2.300                                             
     3     -1.3605826     23  2.300                                             
  local pseudopotential read in
  partial core-charges read in
  partial kinetic energy density read in
  atomic valenz-charges read in
  non local Contribution for L=           0  read in
    real space projection operators read in
  non local Contribution for L=           0  read in
    real space projection operators read in
  non local Contribution for L=           1  read in
    real space projection operators read in
  non local Contribution for L=           1  read in
    real space projection operators read in
  non local Contribution for L=           2  read in
    real space projection operators read in
    PAW grid and wavefunctions read in
 
   number of l-projection  operators is LMAX  =           5
   number of lm-projection operators is LMMAX =          13
 
 POTCAR:    PAW_PBE Te 08Apr2002                  
   VRHFIN =Te: s2p4                                                             
   LEXCH  = PE                                                                  
   EATOM  =   223.2721 eV,   16.4100 Ry                                         
                                                                                
   TITEL  = PAW_PBE Te 08Apr2002                                                
   LULTRA =        F    use ultrasoft PP ?                                      
   IUNSCR =        1    unscreen: 0-lin 1-nonlin 2-no                           
   RPACOR =    2.200    partial core radius                                     
   POMASS =  127.600; ZVAL   =    6.000    mass and valenz                      
   RCORE  =    2.300    outmost cutoff radius                                   
   RWIGS  =    2.900; RWIGS  =    1.535    wigner-seitz radius (au A)           
   ENMAX  =  174.982; ENMIN  =  131.236 eV                                      
   ICORE  =        3    local potential                                         
   LCOR   =        T    correct aug charges                                     
   LPAW   =        T    paw PP                                                  
   EAUG   =  368.792                                                            
   DEXC   =    0.000                                                            
   RMAX   =    2.345    core radius for proj-oper                               
   RAUG   =    1.300    factor for augmentation sphere                          
   RDEP   =    2.397    radius for radial grids                                 
   RDEPT  =    2.174    core radius for aug-charge                              
                                                                                
   Atomic configuration                                                         
   13 entries                                                                   
     n  l   j            E        occ.                                          
     1  0  0.50    -31621.2075   2.0000                                         
     2  0  0.50     -4848.7941   2.0000                                         
     2  1  1.50     -4352.1960   6.0000                                         
     3  0  0.50      -964.9612   2.0000                                         
     3  1  1.50      -803.6179   6.0000                                         
     3  2  2.50      -559.8710  10.0000                                         
     4  0  0.50      -164.3522   2.0000                                         
     4  1  1.50      -114.3756   6.0000                                         
     4  2  2.50       -41.6483  10.0000                                         
     5  0  0.50       -15.1072   2.0000                                         
     5  1  0.50        -5.9526   4.0000                                         
     5  2  1.50        -5.4423   0.0000                                         
     4  3  2.50        -5.4423   0.0000                                         
   Description                                                                  
     l       E           TYP  RCUT    TYP  RCUT                                 
     0    -15.1072389     23  2.300                                             
     0    -16.4678215     23  2.300                                             
     1     -5.9526306     23  2.300                                             
     1     -2.4873968     23  2.300                                             
     2     -5.4423304     23  2.300                                             
     3     -1.3605826     23  2.300                                             
  local pseudopotential read in
  partial core-charges read in
  partial kinetic energy density read in
  atomic valenz-charges read in
  non local Contribution for L=           0  read in
    real space projection operators read in
  non local Contribution for L=           0  read in
    real space projection operators read in
  non local Contribution for L=           1  read in
    real space projection operators read in
  non local Contribution for L=           1  read in
    real space projection operators read in
  non local Contribution for L=           2  read in
    real space projection operators read in
    PAW grid and wavefunctions read in
 
   number of l-projection  operators is LMAX  =           5
   number of lm-projection operators is LMMAX =          13
 
 Optimization of the real space projectors (new method)

 maximal supplied QI-value         = 16.25
 optimisation between [QCUT,QGAM] = [  7.96, 16.09] = [ 17.76, 72.49] Ry 
 Optimized for a Real-space Cutoff    1.70 Angstroem

   l    n(q)    QCUT    max X(q) W(low)/X(q) W(high)/X(q)  e(spline) 
   0      8     7.963    65.336    0.10E-03    0.15E-03    0.79E-07
   0      8     7.963    52.220    0.10E-03    0.15E-03    0.78E-07
   1      8     7.963    36.409    0.24E-03    0.40E-04    0.27E-06
   1      8     7.963    21.334    0.25E-03    0.31E-04    0.27E-06
   2      7     7.963     4.673    0.11E-03    0.19E-03    0.65E-07
 Optimization of the real space projectors (new method)

 maximal supplied QI-value         = 16.25
 optimisation between [QCUT,QGAM] = [  7.96, 16.09] = [ 17.76, 72.49] Ry 
 Optimized for a Real-space Cutoff    1.75 Angstroem

   l    n(q)    QCUT    max X(q) W(low)/X(q) W(high)/X(q)  e(spline) 
   0      8     7.963    19.000    0.75E-04    0.15E-03    0.82E-07
   0      8     7.963     9.057    0.89E-04    0.18E-03    0.10E-06
   1      8     7.963   125.345    0.22E-03    0.74E-04    0.27E-06
   1      8     7.963    79.963    0.21E-03    0.75E-04    0.26E-06
   2      7     7.963     6.963    0.64E-04    0.13E-03    0.56E-07
 Optimization of the real space projectors (new method)

 maximal supplied QI-value         = 16.25
 optimisation between [QCUT,QGAM] = [  7.96, 16.09] = [ 17.76, 72.49] Ry 
 Optimized for a Real-space Cutoff    1.75 Angstroem

   l    n(q)    QCUT    max X(q) W(low)/X(q) W(high)/X(q)  e(spline) 
   0      8     7.963   224.858    0.89E-04    0.20E-03    0.93E-07
   0      8     7.963   205.313    0.90E-04    0.20E-03    0.94E-07
   1      8     7.963   119.695    0.22E-03    0.72E-04    0.27E-06
   1      8     7.963    84.282    0.22E-03    0.72E-04    0.27E-06
   2      7     7.963     5.599    0.62E-04    0.12E-03    0.56E-07
  PAW_PBE Ge 05Jan2001                  :
 energy of atom  1       EATOM= -104.9960
 kinetic energy error for atom=    0.0013 (will be added to EATOM!!)
  PAW_PBE Sb 06Sep2000                  :
 energy of atom  2       EATOM= -149.9515
 kinetic energy error for atom=    0.0023 (will be added to EATOM!!)
  PAW_PBE Te 08Apr2002                  :
 energy of atom  3       EATOM= -223.2721
 kinetic energy error for atom=    0.0032 (will be added to EATOM!!)
 
 
 POSCAR: Ge Sb Te
  positions in cartesian coordinates
  No initial velocities read in
 exchange correlation table for  LEXCH =        8
   RHO(1)=    0.500       N(1)  =     2000
   RHO(2)=  100.500       N(2)  =     4000
 


--------------------------------------------------------------------------------------------------------


 ion  position               nearest neighbor table
   1  0.076  0.791  0.516-  72 2.72  60 2.79  53 2.90  55 3.11  71 3.26  40 3.28
   2  0.205  0.629  0.258-  40 2.72  46 2.80  55 2.97  35 3.18  44 3.30
   3  0.302  0.408  0.501-  70 2.88  59 2.97  55 3.01  39 3.06  54 3.12  68 3.13
   4  0.607  0.813  0.754-  67 2.85  58 2.90  37 2.90  57 3.05  62 3.08  66 3.09
   5  0.479  0.004  0.011-  34 2.77  51 2.88  38 2.93  58 3.15  49 3.23
   6  0.688  0.594  0.007-  50 2.85  42 2.98  37 3.02  36 3.05  62 3.15
   7  0.404  0.689  0.994-  50 2.94  37 3.01  46 3.06  66 3.06  35 3.11  51 3.20
   8  0.302  0.915  0.241-  43 2.87  38 2.93  51 2.99  71 3.12  46 3.18  40 3.20
   9  0.507  0.516  0.749-  62 2.79  66 2.96  70 2.97  50 3.04  65 3.17  59 3.24
  10  0.707  0.103  0.244-  41 2.88  49 3.00  69 3.01  47 3.06  45 3.06  38 3.20
  11  0.609  0.291  0.007-  45 2.84  36 2.95  49 2.97  65 3.09  34 3.21  50 3.21
  12  0.018  0.511  0.508-  55 2.81  64 2.88  72 2.89  68 3.06  44 3.29
  13  0.209  0.077  0.998-  51 2.77  33 2.95  43 2.98  63 3.02  34 3.02
  14  0.004  0.010  0.746-  63 2.86  61 2.88  33 3.03  53 3.03  60 3.16  67 3.25
  15  0.097  0.784  0.002-  52 2.87  35 2.90  40 3.02  60 3.16  51 3.19  33 3.19
  16  0.015  0.490  0.997-  48 2.80  35 2.91  44 2.97  64 3.11  36 3.26  52 3.28
  17  0.215  0.628  0.757-  66 2.87  60 2.88  35 3.00  55 3.18  59 3.31  64 3.43
  18  0.906  0.690  0.255-  72 2.98  40 3.05  44 3.07  42 3.08  52 3.22  47 3.25
  19  0.803  0.429  0.749-  62 2.87  64 2.88  36 3.09  56 3.13  65 3.29  61 3.51
  20  0.919  0.203  0.999-  48 2.87  41 3.05  33 3.07  61 3.11  36 3.20  49 3.39
  21  0.598  0.296  0.497-  54 3.04  69 3.05  56 3.09  45 3.15  70 3.15  65 3.15
  22  0.489  0.981  0.508-  57 2.90  71 2.99  58 3.01  38 3.16  54 3.30  69 3.31
  23  0.611  0.810  0.272-  57 2.86  47 2.93  38 3.02  42 3.20  46 3.33  37 3.45
  24  0.816  0.891  0.995-  52 2.89  67 3.01  33 3.04  49 3.23  47 3.23  37 3.28
  25  0.107  0.309  0.745-  59 2.94  64 3.05  68 3.06  48 3.15  63 3.17  61 3.18
  26  0.187  0.076  0.500-  53 2.84  71 2.89  63 3.09  43 3.18  54 3.36  68 3.37
  27  0.375  0.214  0.255-  39 2.84  43 2.87  54 3.04  34 3.11  45 3.24  38 3.42
  28  0.904  0.207  0.495-  56 2.95  68 2.99  41 3.03  61 3.06  69 3.19  53 3.30
  29  0.487  0.503  0.259-  70 3.04  46 3.04  39 3.09  50 3.20  45 3.21  42 3.22
  30  0.809  0.407  0.255-  56 2.94  44 2.98  42 2.98  36 3.13  41 3.15  45 3.30
  31  0.393  0.221  0.752-  59 2.82  65 3.04  54 3.06  34 3.10  63 3.22  58 3.45
  32  0.694  0.087  0.751-  58 3.00  49 3.02  67 3.05  69 3.19  61 3.26  65 3.27
  33  0.009  0.999  0.994-  13 2.95  14 3.03  24 3.04  20 3.07  15 3.19
  34  0.399  0.189  0.003-   5 2.77  13 3.02  31 3.10  27 3.11  11 3.21
  35  0.197  0.598  0.000-  15 2.90  16 2.91  17 3.00   7 3.11   2 3.18
  36  0.795  0.400  1.000-  11 2.95   6 3.05  19 3.09  30 3.13  20 3.20  16 3.26
  37  0.597  0.794  0.991-   4 2.90   7 3.01   6 3.02  24 3.28  23 3.45
  38  0.499  0.998  0.250-   8 2.93   5 2.93  23 3.02  22 3.16  10 3.20  27 3.42
  39  0.287  0.400  0.251-  27 2.84   3 3.06  29 3.09
  40  0.101  0.798  0.249-   2 2.72  15 3.02  18 3.05   8 3.20   1 3.28
  41  0.896  0.195  0.248-  10 2.88  28 3.03  20 3.05  30 3.15
  42  0.702  0.596  0.251-  30 2.98   6 2.98  18 3.08  23 3.20  29 3.22
  43  0.201  0.098  0.241-  27 2.87   8 2.87  13 2.98  26 3.18
  44  0.008  0.492  0.240-  16 2.97  30 2.98  18 3.07  12 3.29   2 3.30
  45  0.596  0.297  0.239-  11 2.84  10 3.06  21 3.15  29 3.21  27 3.24  30 3.30
  46  0.395  0.703  0.244-   2 2.80  29 3.04   7 3.06   8 3.18  23 3.33
  47  0.803  0.903  0.259-  23 2.93  10 3.06  24 3.23  18 3.25
  48  0.101  0.305  0.003-  16 2.80  20 2.87  25 3.15
  49  0.697  0.094  0.999-  11 2.97  10 3.00  32 3.02  24 3.23   5 3.23  20 3.39
  50  0.503  0.500  0.998-   6 2.85   7 2.94   9 3.04  29 3.20  11 3.21
  51  0.300  0.897  0.997-  13 2.77   5 2.88   8 2.99  15 3.19   7 3.20
  52  0.905  0.701  0.992-  15 2.87  24 2.89  18 3.22  16 3.28
  53  0.000  0.988  0.499-  26 2.84   1 2.90  14 3.03  28 3.30
  54  0.397  0.203  0.502-  27 3.04  21 3.04  31 3.06   3 3.12  22 3.30  26 3.36
  55  0.201  0.603  0.499-  12 2.81   2 2.97   3 3.01   1 3.11  17 3.18
  56  0.800  0.395  0.496-  30 2.94  28 2.95  21 3.09  19 3.13
  57  0.595  0.799  0.505-  23 2.86  22 2.90   4 3.05
  58  0.497  0.993  0.754-   4 2.90  32 3.00  22 3.01   5 3.15  31 3.45
  59  0.300  0.404  0.744-  31 2.82  25 2.94   3 2.97   9 3.24  17 3.31
  60  0.093  0.798  0.744-   1 2.79  17 2.88  14 3.16  15 3.16
  61  0.906  0.195  0.745-  14 2.88  28 3.06  20 3.11  25 3.18  32 3.26  19 3.51
  62  0.690  0.605  0.749-   9 2.79  19 2.87   4 3.08   6 3.15
  63  0.194  0.096  0.752-  14 2.86  13 3.02  26 3.09  25 3.17  31 3.22
  64  1.000  0.503  0.743-  12 2.88  19 2.88  25 3.05  16 3.11  17 3.43
  65  0.598  0.304  0.755-  31 3.04  11 3.09  21 3.15   9 3.17  32 3.27  19 3.29
  66  0.409  0.708  0.744-  17 2.87   9 2.96   7 3.06   4 3.09
  67  0.799  0.892  0.749-   4 2.85  24 3.01  32 3.05  14 3.25
  68  0.099  0.304  0.494-  28 2.99  12 3.06  25 3.06   3 3.13  26 3.37
  69  0.699  0.098  0.490-  10 3.01  21 3.05  32 3.19  28 3.19  22 3.31
  70  0.491  0.498  0.508-   3 2.88   9 2.97  29 3.04  21 3.15
  71  0.290  0.892  0.495-  26 2.89  22 2.99   8 3.12   1 3.26
  72  0.906  0.689  0.499-   1 2.72  12 2.89  18 2.98
 
  LATTYP: Found a triclinic cell.
 ALAT       =    18.3640747281
 B/A-ratio  =     0.7463553280
 C/A-ratio  =     1.5246598960
 COS(alpha) =     0.0000938238
 COS(beta)  =     0.5791697971
 COS(gamma) =     0.7468604135
  
  Lattice vectors:
  
 A1 = ( -13.7154004454,  -0.0359938745, -12.2117048638)
 A2 = ( -13.7061250167,   0.0000000000,   0.0000000000)
 A3 = (  -0.0026269703,  13.6908463695, -24.4234097276)


Analysis of symmetry for initial positions (statically):
=====================================================================
 Subroutine PRICEL returns:
 Original cell was already a primitive cell.
 

 Routine SETGRP: Setting up the symmetry group for a 
 triclinic supercell.


 Subroutine GETGRP returns: Found  1 space group operations
 (whereof  1 operations were pure point group operations)
 out of a pool of  2 trial point group operations.


The static configuration has the point symmetry C_1 .


Analysis of symmetry for dynamics (positions and initial velocities):
=====================================================================
 Subroutine PRICEL returns:
 Original cell was already a primitive cell.
 

 Routine SETGRP: Setting up the symmetry group for a 
 triclinic supercell.


 Subroutine GETGRP returns: Found  1 space group operations
 (whereof  1 operations were pure point group operations)
 out of a pool of  2 trial point group operations.


The dynamic configuration has the point symmetry C_1 .


 Subroutine INISYM returns: Found  1 space group operations
 (whereof  1 operations are pure point group operations),
 and found     1 'primitive' translations


----------------------------------------------------------------------------------------

                                     Primitive cell                                     

  volume of cell :    2303.5565

  direct lattice vectors                    reciprocal lattice vectors
    13.706125017  0.000000000  0.000000000     0.072960082 -0.000084416 -0.000055168
     0.015923887 13.762834119  0.000000000     0.000000000  0.072659453 -0.000214163
     0.009275429  0.035993874 12.211704864     0.000000000  0.000000000  0.081888648

  length of vectors
    13.706125017 13.762843331 12.211761432     0.072960151  0.072659769  0.081888648

  position of ions in fractional coordinates (direct lattice)
     0.075916174  0.791016022  0.516135140
     0.204966563  0.629215853  0.258004925
     0.301655562  0.408433744  0.501033236
     0.607356944  0.812874206  0.754215738
     0.479348869  0.004335724  0.010947120
     0.687907725  0.593934764  0.006789216
     0.404205091  0.689066209  0.994226452
     0.302222883  0.915082741  0.240819774
     0.507191312  0.516344893  0.749318797
     0.707045160  0.103497577  0.243930723
     0.608653870  0.291354949  0.006950414
     0.018028886  0.511243525  0.508424505
     0.209394155  0.076525670  0.998222618
     0.004066057  0.010341810  0.746276634
     0.096638559  0.783618852  0.002326014
     0.014679964  0.489705403  0.996826356
     0.215275043  0.628447239  0.757487190
     0.906130775  0.690384955  0.254943109
     0.802992935  0.429140538  0.748737388
     0.918667865  0.202798571  0.999358623
     0.598084987  0.295931090  0.497014960
     0.488588001  0.980794217  0.508194398
     0.611296014  0.809913681  0.272056198
     0.815544714  0.891233066  0.994642108
     0.107407588  0.308926905  0.744855866
     0.187335327  0.075836153  0.500351922
     0.374979993  0.213614397  0.255056934
     0.903880816  0.207335131  0.495389470
     0.487176564  0.502630774  0.259100595
     0.808744453  0.406997339  0.255130634
     0.392691223  0.221064486  0.751965438
     0.694376928  0.086892351  0.751377478
     0.008896670  0.998619032  0.993833387
     0.398647606  0.188940884  0.003447114
     0.197081027  0.597890079  0.000222953
     0.794634953  0.399562453  0.999565592
     0.596978372  0.793836652  0.990664296
     0.498840274  0.998130322  0.249985570
     0.286939389  0.400173843  0.251258938
     0.100726031  0.797751663  0.249381232
     0.895649719  0.195443158  0.248048903
     0.702470641  0.596285619  0.250596459
     0.200951096  0.098112779  0.241154698
     0.008326537  0.492213134  0.239826464
     0.595953645  0.296728569  0.239316298
     0.394621643  0.703381814  0.244285301
     0.803109375  0.903265301  0.258641200
     0.101250874  0.305039005  0.002744154
     0.697102495  0.094040544  0.998766372
     0.503236089  0.499701678  0.997911441
     0.299536641  0.896682919  0.997269603
     0.904948350  0.701225078  0.991712471
     0.000103268  0.987625238  0.499465068
     0.396776805  0.202728547  0.502325438
     0.201178877  0.602773973  0.499023688
     0.800044666  0.394994036  0.495712111
     0.595266360  0.798629814  0.505373334
     0.497277786  0.993077149  0.754126480
     0.299898362  0.403552516  0.743839628
     0.092670774  0.798420483  0.743774936
     0.905571710  0.195127017  0.745383229
     0.689901280  0.604766671  0.748922456
     0.194480650  0.095729961  0.752473148
     0.999655508  0.502803767  0.743325367
     0.598259111  0.304269702  0.754755385
     0.408640396  0.707832814  0.744137702
     0.799376661  0.891753526  0.748576067
     0.098810661  0.304279902  0.494144763
     0.698767178  0.098009412  0.490436845
     0.491082240  0.498344533  0.507776766
     0.290078577  0.892330625  0.494573859
     0.906156463  0.689418373  0.498954083

  ion indices of the primitive-cell ions
   primitive index   ion index
                 1           1
                 2           2
                 3           3
                 4           4
                 5           5
                 6           6
                 7           7
                 8           8
                 9           9
                10          10
                11          11
                12          12
                13          13
                14          14
                15          15
                16          16
                17          17
                18          18
                19          19
                20          20
                21          21
                22          22
                23          23
                24          24
                25          25
                26          26
                27          27
                28          28
                29          29
                30          30
                31          31
                32          32
                33          33
                34          34
                35          35
                36          36
                37          37
                38          38
                39          39
                40          40
                41          41
                42          42
                43          43
                44          44
                45          45
                46          46
                47          47
                48          48
                49          49
                50          50
                51          51
                52          52
                53          53
                54          54
                55          55
                56          56
                57          57
                58          58
                59          59
                60          60
                61          61
                62          62
                63          63
                64          64
                65          65
                66          66
                67          67
                68          68
                69          69
                70          70
                71          71
                72          72

----------------------------------------------------------------------------------------

 
 

Automatic generation of k-mesh.
 generate k-points for:    2    2    2
Space group operators:
 irot       det(A)        alpha          n_x          n_y          n_z        tau_x        tau_y        tau_z
    1     1.000000     0.000000     1.000000     0.000000     0.000000     0.000000     0.000000     0.000000
 
 Subroutine IBZKPT returns following result:
 ===========================================
 
 Found      4 irreducible k-points:
 
 Following reciprocal coordinates:
            Coordinates               Weight
  0.250000  0.250000  0.250000      2.000000
 -0.250000  0.250000  0.250000      2.000000
  0.250000 -0.250000  0.250000      2.000000
 -0.250000 -0.250000  0.250000      2.000000
 
 Following cartesian coordinates:
            Coordinates               Weight
  0.018240  0.018144  0.020405      2.000000
 -0.018240  0.018186  0.020432      2.000000
  0.018240 -0.018186  0.020512      2.000000
 -0.018240 -0.018144  0.020539      2.000000
 


--------------------------------------------------------------------------------------------------------




 Dimension of arrays:
   k-points           NKPTS =      4   k-points in BZ     NKDIM =      4   number of bands    NBANDS=    232
   number of dos      NEDOS =    301   number of ions     NIONS =     72
   non local maximal  LDIM  =      5   non local SUM 2l+1 LMDIM =     13
   total plane-waves  NPLWV = 331776
   max r-space proj   IRMAX =   3262   max aug-charges    IRDMAX=   8576
   dimension x,y,z NGX =    72 NGY =   72 NGZ =   64
   dimension x,y,z NGXF=   144 NGYF=  144 NGZF=  128
   support grid    NGXF=   144 NGYF=  144 NGZF=  128
   ions per type =              16  16  40
   NGX,Y,Z   is equivalent  to a cutoff of   8.73,  8.70,  8.71 a.u.
   NGXF,Y,Z  is equivalent  to a cutoff of  17.47, 17.39, 17.43 a.u.

 SYSTEM =  unknown system                          
 POSCAR =  Ge Sb Te                                

 Startparameter for this run:
   NWRITE =      2    write-flag & timer
   PREC   = accura    normal or accurate (medium, high low for compatibility)
   ISTART =      0    job   : 0-new  1-cont  2-samecut
   ICHARG =      2    charge: 1-file 2-atom 10-const
   ISPIN  =      1    spin polarized calculation?
   LNONCOLLINEAR =      F non collinear calculations
   LSORBIT =      F    spin-orbit coupling
   INIWAV =      1    electr: 0-lowe 1-rand  2-diag
   LASPH  =      F    aspherical Exc in radial PAW
   METAGGA=      F    non-selfconsistent MetaGGA calc.

 Electronic Relaxation 1
   ENCUT  =  250.0 eV  18.37 Ry    4.29 a.u.  17.67 17.74 15.74*2*pi/ulx,y,z
   ENINI  =  250.0     initial cutoff
   ENAUG  =  385.8 eV  augmentation charge cutoff
   NELM   =     60;   NELMIN=  2; NELMDL= -5     # of ELM steps 
   EDIFF  = 0.1E-05   stopping-criterion for ELM
   LREAL  =      T    real-space projection
   NLSPLINE    = F    spline interpolate recip. space projectors
   LCOMPAT=      F    compatible to vasp.4.4
   GGA_COMPAT  = T    GGA compatible to vasp.4.4-vasp.4.6
   LMAXPAW     = -100 max onsite density
   LMAXMIX     =    2 max onsite mixed and CHGCAR
   VOSKOWN=      0    Vosko Wilk Nusair interpolation
   ROPT   =   -0.00025  -0.00025  -0.00025
 Ionic relaxation
   EDIFFG = 0.1E-04   stopping-criterion for IOM
   NSW    =      0    number of steps for IOM
   NBLOCK =      1;   KBLOCK =      1    inner block; outer block 
   IBRION =     -1    ionic relax: 0-MD 1-quasi-New 2-CG
   NFREE  =      0    steps in history (QN), initial steepest desc. (CG)
   ISIF   =      2    stress and relaxation
   IWAVPR =     10    prediction:  0-non 1-charg 2-wave 3-comb
   ISYM   =      2    0-nonsym 1-usesym 2-fastsym
   LCORR  =      T    Harris-Foulkes like correction to forces

   POTIM  = 0.5000    time-step for ionic-motion
   TEIN   =    0.0    initial temperature
   TEBEG  =    0.0;   TEEND  =   0.0 temperature during run
   SMASS  =  -3.00    Nose mass-parameter (am)
   estimated Nose-frequenzy (Omega)   =  0.10E-29 period in steps = 0.13E+47 mass=  -0.429E-26a.u.
   SCALEE = 1.0000    scale energy and forces
   NPACO  =    256;   APACO  = 16.0  distance and # of slots for P.C.
   PSTRESS=    0.0 pullay stress

  Mass of Ions in am
   POMASS =  72.61121.75127.60
  Ionic Valenz
   ZVAL   =   4.00  5.00  6.00
  Atomic Wigner-Seitz radii
   RWIGS  =  -1.00 -1.00 -1.00
  virtual crystal weights 
   VCA    =   1.00  1.00  1.00
   NELECT =     384.0000    total number of electrons
   NUPDOWN=      -1.0000    fix difference up-down

 DOS related values:
   EMIN   =  10.00;   EMAX   =-10.00  energy-range for DOS
   EFERMI =   0.00
   ISMEAR =     0;   SIGMA  =   0.05  broadening in eV -4-tet -1-fermi 0-gaus

 Electronic relaxation 2 (details)
   IALGO  =     68    algorithm
   LDIAG  =      T    sub-space diagonalisation (order eigenvalues)
   LSUBROT=      F    optimize rotation matrix (better conditioning)
   TURBO    =      0    0=normal 1=particle mesh
   IRESTART =      0    0=no restart 2=restart with 2 vectors
   NREBOOT  =      0    no. of reboots
   NMIN     =      0    reboot dimension
   EREF     =   0.00    reference energy to select bands
   IMIX   =      4    mixing-type and parameters
     AMIX     =   0.40;   BMIX     =  1.00
     AMIX_MAG =   1.60;   BMIX_MAG =  1.00
     AMIN     =   0.10
     WC   =   100.;   INIMIX=   1;  MIXPRE=   1;  MAXMIX= -45

 Intra band minimization:
   WEIMIN = 0.0000     energy-eigenvalue tresh-hold
   EBREAK =  0.11E-08  absolut break condition
   DEPER  =   0.30     relativ break condition  

   TIME   =   0.40     timestep for ELM

  volume/ion in A,a.u.               =      31.99       215.91
  Fermi-wavevector in a.u.,A,eV,Ry     =   0.900988  1.702620 11.044926  0.811779
  Thomas-Fermi vector in A             =   2.024013
 
 Write flags
   LWAVE        =      F    write WAVECAR
   LDOWNSAMPLE  =      F    k-point downsampling of WAVECAR
   LCHARG       =      F    write CHGCAR
   LVTOT        =      F    write LOCPOT, total local potential
   LVHAR        =      F    write LOCPOT, Hartree potential only
   LELF         =      F    write electronic localiz. function (ELF)
   LORBIT       =      0    0 simple, 1 ext, 2 COOP (PROOUT), +10 PAW based schemes


 Dipole corrections
   LMONO  =      F    monopole corrections only (constant potential shift)
   LDIPOL =      F    correct potential (dipole corrections)
   IDIPOL =      0    1-x, 2-y, 3-z, 4-all directions 
   EPSILON=  1.0000000 bulk dielectric constant

 Exchange correlation treatment:
   GGA     =    --    GGA type
   LEXCH   =     8    internal setting for exchange type
   VOSKOWN=      0    Vosko Wilk Nusair interpolation
   LHFCALC =     F    Hartree Fock is set to
   LHFONE  =     F    Hartree Fock one center treatment
   AEXX    =    0.0000 exact exchange contribution

 Linear response parameters
   LEPSILON=     F    determine dielectric tensor
   LRPA    =     F    only Hartree local field effects (RPA)
   LNABLA  =     F    use nabla operator in PAW spheres
   LVEL    =     F    velocity operator in full k-point grid
   LINTERFAST=   F  fast interpolation
   KINTER  =     0    interpolate to denser k-point grid
   CSHIFT  =0.1000    complex shift for real part using Kramers Kronig
   OMEGAMAX=  -1.0    maximum frequency
   DEG_THRESHOLD= 0.2000000E-02 threshold for treating states as degnerate
   RTIME   =   -0.100 relaxation time in fs
  (WPLASMAI=    0.000 imaginary part of plasma frequency in eV, 0.658/RTIME)
   DFIELD  = 0.0000000 0.0000000 0.0000000 field for delta impulse in time
 
 Orbital magnetization related:
   ORBITALMAG=     F  switch on orbital magnetization
   LCHIMAG   =     F  perturbation theory with respect to B field
   DQ        =  0.001000  dq finite difference perturbation B field
   LLRAUG    =     F  two centre corrections for induced B field



--------------------------------------------------------------------------------------------------------


 Static calculation
 charge density and potential will be updated during run
 non-spin polarized calculation
 RMM-DIIS sequential band-by-band and
  variant of blocked Davidson during initial phase
 perform sub-space diagonalisation
    before iterative eigenvector-optimisation
 modified Broyden-mixing scheme, WC =      100.0
 initial mixing is a Kerker type mixing with AMIX =  0.4000 and BMIX =      1.0000
 Hartree-type preconditioning will be used
 using additional bands           40
 real space projection scheme for non local part
 use partial core corrections
 calculate Harris-corrections to forces 
   (improved forces if not selfconsistent)
 use gradient corrections 
 use of overlap-Matrix (Vanderbilt PP)
 Gauss-broadening in eV      SIGMA  =   0.05


--------------------------------------------------------------------------------------------------------


  energy-cutoff  :      250.00
  volume of cell :     2303.56
      direct lattice vectors                 reciprocal lattice vectors
    13.706125017  0.000000000  0.000000000     0.072960082 -0.000084416 -0.000055168
     0.015923887 13.762834119  0.000000000     0.000000000  0.072659453 -0.000214163
     0.009275429  0.035993874 12.211704864     0.000000000  0.000000000  0.081888648

  length of vectors
    13.706125017 13.762843331 12.211761432     0.072960151  0.072659769  0.081888648


 
 k-points in units of 2pi/SCALE and weight: read from INCAR                         
   0.01824002  0.01814376  0.02040483       0.250
  -0.01824002  0.01818597  0.02043241       0.250
   0.01824002 -0.01818597  0.02051191       0.250
  -0.01824002 -0.01814376  0.02053949       0.250
 
 k-points in reciprocal lattice and weights: read from INCAR                         
   0.25000000  0.25000000  0.25000000       0.250
  -0.25000000  0.25000000  0.25000000       0.250
   0.25000000 -0.25000000  0.25000000       0.250
  -0.25000000 -0.25000000  0.25000000       0.250
 
 position of ions in fractional coordinates (direct lattice) 
   0.07591617  0.79101602  0.51613514
   0.20496656  0.62921585  0.25800493
   0.30165556  0.40843374  0.50103324
   0.60735694  0.81287421  0.75421574
   0.47934887  0.00433572  0.01094712
   0.68790772  0.59393476  0.00678922
   0.40420509  0.68906621  0.99422645
   0.30222288  0.91508274  0.24081977
   0.50719131  0.51634489  0.74931880
   0.70704516  0.10349758  0.24393072
   0.60865387  0.29135495  0.00695041
   0.01802889  0.51124353  0.50842450
   0.20939416  0.07652567  0.99822262
   0.00406606  0.01034181  0.74627663
   0.09663856  0.78361885  0.00232601
   0.01467996  0.48970540  0.99682636
   0.21527504  0.62844724  0.75748719
   0.90613077  0.69038495  0.25494311
   0.80299293  0.42914054  0.74873739
   0.91866787  0.20279857  0.99935862
   0.59808499  0.29593109  0.49701496
   0.48858800  0.98079422  0.50819440
   0.61129601  0.80991368  0.27205620
   0.81554471  0.89123307  0.99464211
   0.10740759  0.30892691  0.74485587
   0.18733533  0.07583615  0.50035192
   0.37497999  0.21361440  0.25505693
   0.90388082  0.20733513  0.49538947
   0.48717656  0.50263077  0.25910060
   0.80874445  0.40699734  0.25513063
   0.39269122  0.22106449  0.75196544
   0.69437693  0.08689235  0.75137748
   0.00889667  0.99861903  0.99383339
   0.39864761  0.18894088  0.00344711
   0.19708103  0.59789008  0.00022295
   0.79463495  0.39956245  0.99956559
   0.59697837  0.79383665  0.99066430
   0.49884027  0.99813032  0.24998557
   0.28693939  0.40017384  0.25125894
   0.10072603  0.79775166  0.24938123
   0.89564972  0.19544316  0.24804890
   0.70247064  0.59628562  0.25059646
   0.20095110  0.09811278  0.24115470
   0.00832654  0.49221313  0.23982646
   0.59595365  0.29672857  0.23931630
   0.39462164  0.70338181  0.24428530
   0.80310938  0.90326530  0.25864120
   0.10125087  0.30503901  0.00274415
   0.69710250  0.09404054  0.99876637
   0.50323609  0.49970168  0.99791144
   0.29953664  0.89668292  0.99726960
   0.90494835  0.70122508  0.99171247
   0.00010327  0.98762524  0.49946507
   0.39677680  0.20272855  0.50232544
   0.20117888  0.60277397  0.49902369
   0.80004467  0.39499404  0.49571211
   0.59526636  0.79862981  0.50537333
   0.49727779  0.99307715  0.75412648
   0.29989836  0.40355252  0.74383963
   0.09267077  0.79842048  0.74377494
   0.90557171  0.19512702  0.74538323
   0.68990128  0.60476667  0.74892246
   0.19448065  0.09572996  0.75247315
   0.99965551  0.50280377  0.74332537
   0.59825911  0.30426970  0.75475538
   0.40864040  0.70783281  0.74413770
   0.79937666  0.89175353  0.74857607
   0.09881066  0.30427990  0.49414476
   0.69876718  0.09800941  0.49043684
   0.49108224  0.49834453  0.50777677
   0.29007858  0.89233062  0.49457386
   0.90615646  0.68941837  0.49895408
 
 position of ions in cartesian coordinates  (Angst):
   1.05790000 10.90520000  6.30289000
   2.82171000  8.66908000  3.15068000
   4.14568000  5.63924000  6.11847000
   8.34445000 11.21460000  9.21026000
   6.57018611  0.06006588  0.13368300
   9.43807000  8.17447000  0.08290790
   5.56028000  9.51929000 12.14120000
   4.15911000 12.60280000  2.94082000
   6.96680000  7.13334000  9.15046000
   9.69476000  1.43320000  2.97881000
   8.34699000  4.01012000  0.08487640
   0.25996300  7.05446000  6.20873000
   2.88046000  1.08914000 12.19000000
   0.06281660  0.16919400  9.11331000
   1.33704000 10.78490000  0.02840460
   0.21824943  6.77561387 12.17294926
   2.96762000  8.67648000  9.25021000
  12.43290000  9.51083000  3.11329000
  11.01970000  5.93314000  9.14336000
  12.60387543  2.82705387 12.20387255
   8.20675000  4.09074000  6.06940000
   6.71698000 13.51680000  6.20592000
   8.39392000 11.15650000  3.32227000
  11.20137543 12.30169387 12.14627586
   1.48397000  4.27852000  9.09596000
   2.57349000  1.06173000  6.11015000
   5.14529000  2.94912000  3.11468000
  12.39660000  2.87135000  6.04955000
   6.68771000  6.92695000  3.16406000
  11.09360000  5.61062000  3.11558000
   5.39277000  3.06954000  9.18278000
   9.52557000  1.22293000  9.17560000
   0.14705900 13.77960000 12.13640000
   5.46695457  2.60048613  0.04209514
   2.71074000  8.22867000  0.00272264
  10.90700000  5.53509000 12.20640000
   8.20409000 10.96110000 12.09770000
   6.85538000 13.74610000  3.05275000
   3.94153000  5.51657000  3.06830000
   1.39558000 10.98830000  3.04537000
  12.28130000  2.69878000  3.02910000
   9.63997000  8.21560000  3.06021000
   2.75806000  1.35899000  2.94491000
   0.12418700  6.78288000  2.92869000
   8.17516000  4.09244000  2.92246000
   5.42220000  9.68932000  2.98314000
  11.02430000 12.44080000  3.15845000
   1.39264000  4.19830000  0.03351080
   9.56533543  1.33021387 12.19664016
   6.91463000  6.91323000 12.18620000
   4.12901543 12.37679387 12.17836206
  12.42370000  9.68654000 12.11050000
   0.02177498 13.61050000  6.09932000
   5.44616000  2.80820000  6.13425000
   2.77161000  8.31384000  6.09393000
  10.97640000  5.45408000  6.05349000
   8.17620000 11.00960000  6.17147000
   6.83856000 13.69470000  9.20917000
   4.12377000  5.58080000  9.08355000
   1.28977000 11.01530000  9.08276000
  12.42190000  2.71233000  9.10240000
   9.47245000  8.35026000  9.14562000
   2.67408000  1.34460000  9.18898000
  13.71630462  6.94676000  9.07727000
   8.21166000  4.21478000  9.21685000
   5.61905000  9.76857000  9.08719000
  10.97750000 12.30000000  9.14139000
   1.36374000  4.20554000  6.03435000
   9.58350000  1.36654000  5.98907000
   6.74348000  6.87691000  6.20082000
   3.99465000 12.29880000  6.03959000
  12.43550000  9.50631000  6.09308000
 


--------------------------------------------------------------------------------------------------------


 k-point  1 :   0.2500 0.2500 0.2500  plane waves:   20678
 k-point  2 :  -0.2500 0.2500 0.2500  plane waves:   20679
 k-point  3 :   0.2500-0.2500 0.2500  plane waves:   20673
 k-point  4 :  -0.2500-0.2500 0.2500  plane waves:   20666

 maximum and minimum number of plane-waves per node :      5190     5136

 maximum number of plane-waves:     20679
 maximum index in each direction: 
   IXMAX=   17   IYMAX=   17   IZMAX=   15
   IXMIN=  -17   IYMIN=  -17   IZMIN=  -15


 real space projection operators:
  total allocation   :      22360.81 KBytes
  max/ min on nodes  :       5595.99       5583.91


 parallel 3D FFT for wavefunctions:
    minimum data exchange during FFTs selected (reduces bandwidth)
 parallel 3D FFT for charge:
    minimum data exchange during FFTs selected (reduces bandwidth)


 total amount of memory used by VASP MPI-rank0    78164. kBytes
=======================================================================

   base      :      30000. kBytes
   nonlr-proj:       5685. kBytes
   fftplans  :       8135. kBytes
   grid      :      14079. kBytes
   one-center:        146. kBytes
   wavefun   :      20119. kBytes
 
     INWAV:  cpu time    0.0001: real time    0.0001
 Broyden mixing: mesh for mixing (old mesh)
   NGX = 35   NGY = 35   NGZ = 31
  (NGX  =144   NGY  =144   NGZ  =128)
  gives a total of  37975 points

 initial charge density was supplied:
 charge density of overlapping atoms calculated
 number of electron     384.0000000 magnetization 
 keeping initial charge density in first step


--------------------------------------------------------------------------------------------------------


 Maximum index for non-local projection operator          791
 Maximum index for augmentation-charges          577 (set IRDMAX)


--------------------------------------------------------------------------------------------------------


 First call to EWALD:  gamma=   0.134
 Maximum number of real-space cells 3x 3x 3
 Maximum number of reciprocal cells 3x 3x 3

    FEWALD:  cpu time    0.0092: real time    0.0095


--------------------------------------- Iteration      1(   1)  ---------------------------------------


    POTLOK:  cpu time    0.1740: real time    0.2032
    SETDIJ:  cpu time    0.0329: real time    0.0331
     EDDAV:  cpu time    3.0532: real time    3.1325
       DOS:  cpu time    0.0036: real time    0.0051
    --------------------------------------------
      LOOP:  cpu time    3.2638: real time    3.3740

 eigenvalue-minimisations  :  1856
 total energy-change (2. order) : 0.1321238E+04  (-0.8920140E+04)
 number of electron     384.0000000 magnetization 
 augmentation part      384.0000000 magnetization 

 Free energy of the ion-electron system (eV)
  ---------------------------------------------------
  alpha Z        PSCENC =       124.51728726
  Ewald energy   TEWEN  =    -13019.06354077
  -Hartree energ DENC   =      -994.72520580
  -exchange      EXHF   =         0.00000000
  -V(xc)+E(xc)   XCENC  =     -1982.32346690
  PAW double counting   =     12338.96171541    -9704.48084717
  entropy T*S    EENTRO =        -0.02978572
  eigenvalues    EBANDS =      1548.52347478
  atomic energy  EATOM  =     13009.85829969
  Solvation  Ediel_sol  =         0.00000000
  ---------------------------------------------------
  free energy    TOTEN  =      1321.23793079 eV

  energy without entropy =     1321.26771651  energy(sigma->0) =     1321.25282365


--------------------------------------------------------------------------------------------------------




--------------------------------------- Iteration      1(   2)  ---------------------------------------


     EDDAV:  cpu time    3.4596: real time    3.4630
       DOS:  cpu time    0.0020: real time    0.0020
    --------------------------------------------
      LOOP:  cpu time    3.4615: real time    3.4649

 eigenvalue-minimisations  :  2192
 total energy-change (2. order) :-0.1445607E+04  (-0.1394323E+04)
 number of electron     384.0000000 magnetization 
 augmentation part      384.0000000 magnetization 

 Free energy of the ion-electron system (eV)
  ---------------------------------------------------
  alpha Z        PSCENC =       124.51728726
  Ewald energy   TEWEN  =    -13019.06354077
  -Hartree energ DENC   =      -994.72520580
  -exchange      EXHF   =         0.00000000
  -V(xc)+E(xc)   XCENC  =     -1982.32346690
  PAW double counting   =     12338.96171541    -9704.48084717
  entropy T*S    EENTRO =        -0.00341857
  eigenvalues    EBANDS =       102.88990395
  atomic energy  EATOM  =     13009.85829969
  Solvation  Ediel_sol  =         0.00000000
  ---------------------------------------------------
  free energy    TOTEN  =      -124.36927290 eV

  energy without entropy =     -124.36585433  energy(sigma->0) =     -124.36756361


--------------------------------------------------------------------------------------------------------




--------------------------------------- Iteration      1(   3)  ---------------------------------------


     EDDAV:  cpu time    3.4435: real time    3.4748
       DOS:  cpu time    0.0010: real time    0.0010
    --------------------------------------------
      LOOP:  cpu time    3.4446: real time    3.4759

 eigenvalue-minimisations  :  2168
 total energy-change (2. order) :-0.1408739E+03  (-0.1370631E+03)
 number of electron     384.0000000 magnetization 
 augmentation part      384.0000000 magnetization 

 Free energy of the ion-electron system (eV)
  ---------------------------------------------------
  alpha Z        PSCENC =       124.51728726
  Ewald energy   TEWEN  =    -13019.06354077
  -Hartree energ DENC   =      -994.72520580
  -exchange      EXHF   =         0.00000000
  -V(xc)+E(xc)   XCENC  =     -1982.32346690
  PAW double counting   =     12338.96171541    -9704.48084717
  entropy T*S    EENTRO =        -0.00000000
  eigenvalues    EBANDS =       -37.98737026
  atomic energy  EATOM  =     13009.85829969
  Solvation  Ediel_sol  =         0.00000000
  ---------------------------------------------------
  free energy    TOTEN  =      -265.24312854 eV

  energy without entropy =     -265.24312854  energy(sigma->0) =     -265.24312854


--------------------------------------------------------------------------------------------------------




--------------------------------------- Iteration      1(   4)  ---------------------------------------


     EDDAV:  cpu time    3.9409: real time    3.9469
       DOS:  cpu time    0.0014: real time    0.0014
    --------------------------------------------
      LOOP:  cpu time    3.9423: real time    3.9483

 eigenvalue-minimisations  :  2520
 total energy-change (2. order) :-0.6294502E+01  (-0.6223379E+01)
 number of electron     384.0000000 magnetization 
 augmentation part      384.0000000 magnetization 

 Free energy of the ion-electron system (eV)
  ---------------------------------------------------
  alpha Z        PSCENC =       124.51728726
  Ewald energy   TEWEN  =    -13019.06354077
  -Hartree energ DENC   =      -994.72520580
  -exchange      EXHF   =         0.00000000
  -V(xc)+E(xc)   XCENC  =     -1982.32346690
  PAW double counting   =     12338.96171541    -9704.48084717
  entropy T*S    EENTRO =        -0.00000000
  eigenvalues    EBANDS =       -44.28187219
  atomic energy  EATOM  =     13009.85829969
  Solvation  Ediel_sol  =         0.00000000
  ---------------------------------------------------
  free energy    TOTEN  =      -271.53763047 eV

  energy without entropy =     -271.53763047  energy(sigma->0) =     -271.53763047


--------------------------------------------------------------------------------------------------------




--------------------------------------- Iteration      1(   5)  ---------------------------------------


     EDDAV:  cpu time    3.7807: real time    3.8158
       DOS:  cpu time    0.0013: real time    0.0013
    CHARGE:  cpu time    0.2040: real time    0.2046
    MIXING:  cpu time    0.0161: real time    0.0170
    --------------------------------------------
      LOOP:  cpu time    4.0021: real time    4.0388

 eigenvalue-minimisations  :  2344
 total energy-change (2. order) :-0.1640424E+00  (-0.1632776E+00)
 number of electron     383.9999974 magnetization 
 augmentation part      -72.2876389 magnetization 

 Broyden mixing:
  rms(total) = 0.29535E+01    rms(broyden)= 0.29534E+01
  rms(prec ) = 0.30562E+01
  weight for this iteration     100.00

 Free energy of the ion-electron system (eV)
  ---------------------------------------------------
  alpha Z        PSCENC =       124.51728726
  Ewald energy   TEWEN  =    -13019.06354077
  -Hartree energ DENC   =      -994.72520580
  -exchange      EXHF   =         0.00000000
  -V(xc)+E(xc)   XCENC  =     -1982.32346690
  PAW double counting   =     12338.96171541    -9704.48084717
  entropy T*S    EENTRO =        -0.00000000
  eigenvalues    EBANDS =       -44.44591457
  atomic energy  EATOM  =     13009.85829969
  Solvation  Ediel_sol  =         0.00000000
  ---------------------------------------------------
  free energy    TOTEN  =      -271.70167284 eV

  energy without entropy =     -271.70167284  energy(sigma->0) =     -271.70167284


--------------------------------------------------------------------------------------------------------




--------------------------------------- Iteration      1(   6)  ---------------------------------------


    POTLOK:  cpu time    0.1983: real time    0.1985
    SETDIJ:  cpu time    0.0290: real time    0.0290
    EDDIAG:  cpu time    0.4511: real time    0.4522
  RMM-DIIS:  cpu time    1.8936: real time    1.8960
    ORTHCH:  cpu time    0.0554: real time    0.0554
       DOS:  cpu time    0.0014: real time    0.0014
    CHARGE:  cpu time    0.2024: real time    0.2024
    MIXING:  cpu time    0.0166: real time    0.0290
    --------------------------------------------
      LOOP:  cpu time    2.8477: real time    2.8639

 eigenvalue-minimisations  :  1982
 total energy-change (2. order) : 0.2293222E+01  (-0.6779616E+00)
 number of electron     383.9999974 magnetization 
 augmentation part      -71.9946093 magnetization 

 Broyden mixing:
  rms(total) = 0.18204E+01    rms(broyden)= 0.18204E+01
  rms(prec ) = 0.18386E+01
  weight for this iteration     100.00

 eigenvalues of (default mixing * dielectric matrix)
  average eigenvalue GAMMA=   2.4811
  2.4811

 Free energy of the ion-electron system (eV)
  ---------------------------------------------------
  alpha Z        PSCENC =       124.51728726
  Ewald energy   TEWEN  =    -13019.06354077
  -Hartree energ DENC   =     -1006.25233885
  -exchange      EXHF   =         0.00000000
  -V(xc)+E(xc)   XCENC  =     -1979.64322253
  PAW double counting   =     16340.65251256   -13707.95476537
  entropy T*S    EENTRO =        -0.00000000
  eigenvalues    EBANDS =       -31.52268267
  atomic energy  EATOM  =     13009.85829969
  Solvation  Ediel_sol  =         0.00000000
  ---------------------------------------------------
  free energy    TOTEN  =      -269.40845068 eV

  energy without entropy =     -269.40845068  energy(sigma->0) =     -269.40845068


--------------------------------------------------------------------------------------------------------




--------------------------------------- Iteration      1(   7)  ---------------------------------------


    POTLOK:  cpu time    0.1435: real time    0.1698
    SETDIJ:  cpu time    0.0288: real time    0.0287
    EDDIAG:  cpu time    0.4562: real time    0.4563
  RMM-DIIS:  cpu time    2.0006: real time    2.0025
    ORTHCH:  cpu time    0.0547: real time    0.0547
       DOS:  cpu time    0.0013: real time    0.0013
    CHARGE:  cpu time    0.2011: real time    0.2020
    MIXING:  cpu time    0.0133: real time    0.0173
    --------------------------------------------
      LOOP:  cpu time    2.8994: real time    2.9326

 eigenvalue-minimisations  :  2130
 total energy-change (2. order) :-0.9678144E-01  (-0.2452166E+00)
 number of electron     383.9999975 magnetization 
 augmentation part      -71.9182829 magnetization 

 Broyden mixing:
  rms(total) = 0.32090E+00    rms(broyden)= 0.32090E+00
  rms(prec ) = 0.34195E+00
  weight for this iteration     100.00

 eigenvalues of (default mixing * dielectric matrix)
  average eigenvalue GAMMA=   1.8688
  1.1865  2.5511

 Free energy of the ion-electron system (eV)
  ---------------------------------------------------
  alpha Z        PSCENC =       124.51728726
  Ewald energy   TEWEN  =    -13019.06354077
  -Hartree energ DENC   =     -1016.84100482
  -exchange      EXHF   =         0.00000000
  -V(xc)+E(xc)   XCENC  =     -1976.51407693
  PAW double counting   =     22926.99678584   -20296.01287290
  entropy T*S    EENTRO =        -0.00000000
  eigenvalues    EBANDS =       -22.44610949
  atomic energy  EATOM  =     13009.85829969
  Solvation  Ediel_sol  =         0.00000000
  ---------------------------------------------------
  free energy    TOTEN  =      -269.50523212 eV

  energy without entropy =     -269.50523212  energy(sigma->0) =     -269.50523212


--------------------------------------------------------------------------------------------------------




--------------------------------------- Iteration      1(   8)  ---------------------------------------


    POTLOK:  cpu time    0.1445: real time    0.1705
    SETDIJ:  cpu time    0.0300: real time    0.0300
    EDDIAG:  cpu time    0.4533: real time    0.4534
  RMM-DIIS:  cpu time    2.0046: real time    2.0080
    ORTHCH:  cpu time    0.0550: real time    0.0550
       DOS:  cpu time    0.0011: real time    0.0011
    CHARGE:  cpu time    0.2028: real time    0.2028
    MIXING:  cpu time    0.0133: real time    0.0158
    --------------------------------------------
      LOOP:  cpu time    2.9046: real time    2.9365

 eigenvalue-minimisations  :  2136
 total energy-change (2. order) : 0.6546705E-01  (-0.2059959E-01)
 number of electron     383.9999975 magnetization 
 augmentation part      -71.9882118 magnetization 

 Broyden mixing:
  rms(total) = 0.73250E-01    rms(broyden)= 0.73248E-01
  rms(prec ) = 0.78912E-01
  weight for this iteration     100.00

 eigenvalues of (default mixing * dielectric matrix)
  average eigenvalue GAMMA=   1.7881
  2.6365  1.1873  1.5404

 Free energy of the ion-electron system (eV)
  ---------------------------------------------------
  alpha Z        PSCENC =       124.51728726
  Ewald energy   TEWEN  =    -13019.06354077
  -Hartree energ DENC   =     -1017.11756828
  -exchange      EXHF   =         0.00000000
  -V(xc)+E(xc)   XCENC  =     -1976.07929955
  PAW double counting   =     24192.99185495   -21562.11881382
  entropy T*S    EENTRO =        -0.00000000
  eigenvalues    EBANDS =       -22.42798455
  atomic energy  EATOM  =     13009.85829969
  Solvation  Ediel_sol  =         0.00000000
  ---------------------------------------------------
  free energy    TOTEN  =      -269.43976506 eV

  energy without entropy =     -269.43976506  energy(sigma->0) =     -269.43976506


--------------------------------------------------------------------------------------------------------




--------------------------------------- Iteration      1(   9)  ---------------------------------------


    POTLOK:  cpu time    0.1446: real time    0.1705
    SETDIJ:  cpu time    0.0299: real time    0.0299
    EDDIAG:  cpu time    0.4563: real time    0.4573
  RMM-DIIS:  cpu time    2.1385: real time    2.1405
    ORTHCH:  cpu time    0.0547: real time    0.0547
       DOS:  cpu time    0.0013: real time    0.0013
    CHARGE:  cpu time    0.2029: real time    0.2029
    MIXING:  cpu time    0.0127: real time    0.0127
    --------------------------------------------
      LOOP:  cpu time    3.0410: real time    3.0699

 eigenvalue-minimisations  :  2280
 total energy-change (2. order) : 0.2365862E-03  (-0.4234024E-02)
 number of electron     383.9999975 magnetization 
 augmentation part      -72.0089551 magnetization 

 Broyden mixing:
  rms(total) = 0.34634E-01    rms(broyden)= 0.34634E-01
  rms(prec ) = 0.36315E-01
  weight for this iteration     100.00

 eigenvalues of (default mixing * dielectric matrix)
  average eigenvalue GAMMA=   1.7741
  2.5800  1.0960  1.7102  1.7102

 Free energy of the ion-electron system (eV)
  ---------------------------------------------------
  alpha Z        PSCENC =       124.51728726
  Ewald energy   TEWEN  =    -13019.06354077
  -Hartree energ DENC   =     -1017.36282607
  -exchange      EXHF   =         0.00000000
  -V(xc)+E(xc)   XCENC  =     -1976.00006909
  PAW double counting   =     24284.11864267   -21653.21854843
  entropy T*S    EENTRO =        -0.00000000
  eigenvalues    EBANDS =       -22.28877373
  atomic energy  EATOM  =     13009.85829969
  Solvation  Ediel_sol  =         0.00000000
  ---------------------------------------------------
  free energy    TOTEN  =      -269.43952848 eV

  energy without entropy =     -269.43952848  energy(sigma->0) =     -269.43952848


--------------------------------------------------------------------------------------------------------




--------------------------------------- Iteration      1(  10)  ---------------------------------------


    POTLOK:  cpu time    0.1693: real time    0.1704
    SETDIJ:  cpu time    0.0288: real time    0.0288
    EDDIAG:  cpu time    0.4537: real time    0.4537
  RMM-DIIS:  cpu time    2.0999: real time    2.1021
    ORTHCH:  cpu time    0.0543: real time    0.0543
       DOS:  cpu time    0.0011: real time    0.0011
    CHARGE:  cpu time    0.2022: real time    0.2032
    MIXING:  cpu time    0.0132: real time    0.0132
    --------------------------------------------
      LOOP:  cpu time    3.0226: real time    3.0269

 eigenvalue-minimisations  :  2234
 total energy-change (2. order) :-0.2241826E-03  (-0.4708294E-03)
 number of electron     383.9999975 magnetization 
 augmentation part      -72.0060451 magnetization 

 Broyden mixing:
  rms(total) = 0.12253E-01    rms(broyden)= 0.12253E-01
  rms(prec ) = 0.13602E-01
  weight for this iteration     100.00

 eigenvalues of (default mixing * dielectric matrix)
  average eigenvalue GAMMA=   1.7285
  2.7163  2.4623  1.0732  1.0732  1.3175

 Free energy of the ion-electron system (eV)
  ---------------------------------------------------
  alpha Z        PSCENC =       124.51728726
  Ewald energy   TEWEN  =    -13019.06354077
  -Hartree energ DENC   =     -1017.92563755
  -exchange      EXHF   =         0.00000000
  -V(xc)+E(xc)   XCENC  =     -1975.96052139
  PAW double counting   =     24237.83192070   -21606.92637901
  entropy T*S    EENTRO =        -0.00000000
  eigenvalues    EBANDS =       -21.77118159
  atomic energy  EATOM  =     13009.85829969
  Solvation  Ediel_sol  =         0.00000000
  ---------------------------------------------------
  free energy    TOTEN  =      -269.43975266 eV

  energy without entropy =     -269.43975266  energy(sigma->0) =     -269.43975266


--------------------------------------------------------------------------------------------------------




--------------------------------------- Iteration      1(  11)  ---------------------------------------


    POTLOK:  cpu time    0.1441: real time    0.1700
    SETDIJ:  cpu time    0.0300: real time    0.0300
    EDDIAG:  cpu time    0.4553: real time    0.4553
  RMM-DIIS:  cpu time    2.1763: real time    2.1791
    ORTHCH:  cpu time    0.0542: real time    0.0542
       DOS:  cpu time    0.0011: real time    0.0011
    CHARGE:  cpu time    0.2028: real time    0.2028
    MIXING:  cpu time    0.0130: real time    0.0129
    --------------------------------------------
      LOOP:  cpu time    3.0766: real time    3.1054

 eigenvalue-minimisations  :  2325
 total energy-change (2. order) :-0.9402118E-04  (-0.1064387E-03)
 number of electron     383.9999975 magnetization 
 augmentation part      -72.0057835 magnetization 

 Broyden mixing:
  rms(total) = 0.31644E-02    rms(broyden)= 0.31643E-02
  rms(prec ) = 0.36240E-02
  weight for this iteration     100.00

 eigenvalues of (default mixing * dielectric matrix)
  average eigenvalue GAMMA=   1.7049
  2.6605  2.4105  1.6249  1.4889  1.0225  1.0225

 Free energy of the ion-electron system (eV)
  ---------------------------------------------------
  alpha Z        PSCENC =       124.51728726
  Ewald energy   TEWEN  =    -13019.06354077
  -Hartree energ DENC   =     -1018.14705608
  -exchange      EXHF   =         0.00000000
  -V(xc)+E(xc)   XCENC  =     -1975.93663746
  PAW double counting   =     24239.77673312   -21608.86359143
  entropy T*S    EENTRO =        -0.00000000
  eigenvalues    EBANDS =       -21.58134101
  atomic energy  EATOM  =     13009.85829969
  Solvation  Ediel_sol  =         0.00000000
  ---------------------------------------------------
  free energy    TOTEN  =      -269.43984668 eV

  energy without entropy =     -269.43984668  energy(sigma->0) =     -269.43984668


--------------------------------------------------------------------------------------------------------




--------------------------------------- Iteration      1(  12)  ---------------------------------------


    POTLOK:  cpu time    0.1440: real time    0.1703
    SETDIJ:  cpu time    0.0298: real time    0.0298
    EDDIAG:  cpu time    0.4560: real time    0.4570
  RMM-DIIS:  cpu time    2.1490: real time    2.1516
    ORTHCH:  cpu time    0.0544: real time    0.0544
       DOS:  cpu time    0.0012: real time    0.0012
    CHARGE:  cpu time    0.2055: real time    0.2065
    MIXING:  cpu time    0.0135: real time    0.0135
    --------------------------------------------
      LOOP:  cpu time    3.0534: real time    3.0842

 eigenvalue-minimisations  :  2296
 total energy-change (2. order) :-0.9525105E-05  (-0.2000220E-04)
 number of electron     383.9999975 magnetization 
 augmentation part      -72.0062795 magnetization 

 Broyden mixing:
  rms(total) = 0.16314E-02    rms(broyden)= 0.16313E-02
  rms(prec ) = 0.18802E-02
  weight for this iteration     100.00

 eigenvalues of (default mixing * dielectric matrix)
  average eigenvalue GAMMA=   1.6496
  2.5400  2.5400  2.1743  1.3049  1.0765  0.9559  0.9559

 Free energy of the ion-electron system (eV)
  ---------------------------------------------------
  alpha Z        PSCENC =       124.51728726
  Ewald energy   TEWEN  =    -13019.06354077
  -Hartree energ DENC   =     -1018.19845011
  -exchange      EXHF   =         0.00000000
  -V(xc)+E(xc)   XCENC  =     -1975.93407342
  PAW double counting   =     24238.71843908   -21607.80081236
  entropy T*S    EENTRO =        -0.00000000
  eigenvalues    EBANDS =       -21.53700558
  atomic energy  EATOM  =     13009.85829969
  Solvation  Ediel_sol  =         0.00000000
  ---------------------------------------------------
  free energy    TOTEN  =      -269.43985621 eV

  energy without entropy =     -269.43985621  energy(sigma->0) =     -269.43985621


--------------------------------------------------------------------------------------------------------




--------------------------------------- Iteration      1(  13)  ---------------------------------------


    POTLOK:  cpu time    0.1703: real time    0.1705
    SETDIJ:  cpu time    0.0299: real time    0.0299
    EDDIAG:  cpu time    0.4554: real time    0.4554
  RMM-DIIS:  cpu time    2.1676: real time    2.1704
    ORTHCH:  cpu time    0.0543: real time    0.0543
       DOS:  cpu time    0.0011: real time    0.0012
    CHARGE:  cpu time    0.2040: real time    0.2040
    MIXING:  cpu time    0.0134: real time    0.0134
    --------------------------------------------
      LOOP:  cpu time    3.0959: real time    3.0991

 eigenvalue-minimisations  :  2310
 total energy-change (2. order) : 0.1716035E-07  (-0.2987581E-05)
 number of electron     383.9999975 magnetization 
 augmentation part      -72.0058951 magnetization 

 Broyden mixing:
  rms(total) = 0.78745E-03    rms(broyden)= 0.78744E-03
  rms(prec ) = 0.86665E-03
  weight for this iteration     100.00

 eigenvalues of (default mixing * dielectric matrix)
  average eigenvalue GAMMA=   1.6966
  2.7136  2.7136  2.2822  1.5452  1.0249  1.0249  1.1341  1.1341

 Free energy of the ion-electron system (eV)
  ---------------------------------------------------
  alpha Z        PSCENC =       124.51728726
  Ewald energy   TEWEN  =    -13019.06354077
  -Hartree energ DENC   =     -1018.23846000
  -exchange      EXHF   =         0.00000000
  -V(xc)+E(xc)   XCENC  =     -1975.93102479
  PAW double counting   =     24237.67908229   -21606.76050668
  entropy T*S    EENTRO =        -0.00000000
  eigenvalues    EBANDS =       -21.50099318
  atomic energy  EATOM  =     13009.85829969
  Solvation  Ediel_sol  =         0.00000000
  ---------------------------------------------------
  free energy    TOTEN  =      -269.43985619 eV

  energy without entropy =     -269.43985619  energy(sigma->0) =     -269.43985619


--------------------------------------------------------------------------------------------------------




--------------------------------------- Iteration      1(  14)  ---------------------------------------


    POTLOK:  cpu time    0.1442: real time    0.1695
    SETDIJ:  cpu time    0.0298: real time    0.0298
    EDDIAG:  cpu time    0.4531: real time    0.4541
  RMM-DIIS:  cpu time    1.8147: real time    1.8175
    ORTHCH:  cpu time    0.0541: real time    0.0541
       DOS:  cpu time    0.0011: real time    0.0011
    --------------------------------------------
      LOOP:  cpu time    2.4969: real time    2.5260

 eigenvalue-minimisations  :  1908
 total energy-change (2. order) : 0.4625217E-06  (-0.7044103E-06)
 number of electron     383.9999975 magnetization 
 augmentation part      -72.0058951 magnetization 

 Free energy of the ion-electron system (eV)
  ---------------------------------------------------
  alpha Z        PSCENC =       124.51728726
  Ewald energy   TEWEN  =    -13019.06354077
  -Hartree energ DENC   =     -1018.26365831
  -exchange      EXHF   =         0.00000000
  -V(xc)+E(xc)   XCENC  =     -1975.92854991
  PAW double counting   =     24238.08540447   -21607.16559657
  entropy T*S    EENTRO =        -0.00000000
  eigenvalues    EBANDS =       -21.47950158
  atomic energy  EATOM  =     13009.85829969
  Solvation  Ediel_sol  =         0.00000000
  ---------------------------------------------------
  free energy    TOTEN  =      -269.43985573 eV

  energy without entropy =     -269.43985573  energy(sigma->0) =     -269.43985573


--------------------------------------------------------------------------------------------------------




 average (electrostatic) potential at core
  the test charge radii are     1.1631  1.1712  1.1897
  (the norm of the test charge is              1.0000)
       1 -31.5006       2 -31.6527       3 -31.6861       4 -31.8229       5 -31.7606
       6 -31.6944       7 -31.7935       8 -31.7289       9 -31.7251      10 -31.8650
      11 -31.9558      12 -31.5848      13 -31.8275      14 -31.7833      15 -31.7362
      16 -31.8693      17 -88.1319      18 -88.1056      19 -88.3344      20 -88.3233
      21 -88.2434      22 -88.1245      23 -88.1279      24 -88.1384      25 -88.2217
      26 -88.0759      27 -88.2161      28 -88.2918      29 -88.2373      30 -88.2863
      31 -88.3454      32 -88.2756      33 -89.2158      34 -89.3103      35 -89.2916
      36 -89.4712      37 -89.0702      38 -89.3710      39 -89.2017      40 -89.1189
      41 -89.2357      42 -89.2343      43 -89.3058      44 -89.3210      45 -89.3245
      46 -89.0446      47 -89.0036      48 -89.2688      49 -89.2306      50 -89.1216
      51 -89.0506      52 -88.9886      53 -89.1112      54 -89.4020      55 -89.1375
      56 -89.5463      57 -88.8337      58 -89.4037      59 -89.5017      60 -88.8033
      61 -89.4891      62 -89.1785      63 -89.2491      64 -89.4475      65 -89.4098
      66 -89.0214      67 -89.1417      68 -89.0452      69 -89.1000      70 -89.0495
      71 -89.0370      72 -88.8494
 
 
 
 E-fermi :   5.2836     XC(G=0):  -8.9959     alpha+bet :-10.1508


 k-point     1 :       0.2500    0.2500    0.2500
  band No.  band energies     occupation 
      1      -7.6029      2.00000
      2      -7.3334      2.00000
      3      -7.2279      2.00000
      4      -7.1479      2.00000
      5      -6.9745      2.00000
      6      -6.9205      2.00000
      7      -6.8119      2.00000
      8      -6.7661      2.00000
      9      -6.6562      2.00000
     10      -6.5731      2.00000
     11      -6.5067      2.00000
     12      -6.4537      2.00000
     13      -6.4123      2.00000
     14      -6.2958      2.00000
     15      -6.2497      2.00000
     16      -6.2137      2.00000
     17      -6.1672      2.00000
     18      -6.1073      2.00000
     19      -6.0649      2.00000
     20      -6.0264      2.00000
     21      -5.9913      2.00000
     22      -5.9522      2.00000
     23      -5.8951      2.00000
     24      -5.8659      2.00000
     25      -5.8235      2.00000
     26      -5.8159      2.00000
     27      -5.7782      2.00000
     28      -5.7492      2.00000
     29      -5.7168      2.00000
     30      -5.6740      2.00000
     31      -5.6570      2.00000
     32      -5.6308      2.00000
     33      -5.6027      2.00000
     34      -5.5745      2.00000
     35      -5.5597      2.00000
     36      -5.5443      2.00000
     37      -5.4880      2.00000
     38      -5.4496      2.00000
     39      -5.4149      2.00000
     40      -5.3733      2.00000
     41      -4.2715      2.00000
     42      -4.1144      2.00000
     43      -4.0372      2.00000
     44      -4.0090      2.00000
     45      -3.9164      2.00000
     46      -3.8650      2.00000
     47      -3.7588      2.00000
     48      -3.6823      2.00000
     49      -3.6715      2.00000
     50      -3.5645      2.00000
     51      -3.4883      2.00000
     52      -3.4709      2.00000
     53      -3.3313      2.00000
     54      -3.2690      2.00000
     55      -3.1292      2.00000
     56      -3.1008      2.00000
     57      -2.8981      2.00000
     58      -2.8129      2.00000
     59      -2.7140      2.00000
     60      -2.6665      2.00000
     61      -2.6054      2.00000
     62      -2.5240      2.00000
     63      -2.4238      2.00000
     64      -2.3346      2.00000
     65      -2.2644      2.00000
     66      -2.2406      2.00000
     67      -2.0992      2.00000
     68      -2.0524      2.00000
     69      -1.7799      2.00000
     70      -1.5493      2.00000
     71      -1.5121      2.00000
     72      -1.0879      2.00000
     73       0.0068      2.00000
     74       0.0976      2.00000
     75       0.1710      2.00000
     76       0.3003      2.00000
     77       0.4163      2.00000
     78       0.4814      2.00000
     79       0.5526      2.00000
     80       0.6530      2.00000
     81       0.6678      2.00000
     82       0.7781      2.00000
     83       0.8330      2.00000
     84       0.9209      2.00000
     85       0.9541      2.00000
     86       1.0179      2.00000
     87       1.0322      2.00000
     88       1.0552      2.00000
     89       1.1311      2.00000
     90       1.1794      2.00000
     91       1.2598      2.00000
     92       1.3262      2.00000
     93       1.3528      2.00000
     94       1.3688      2.00000
     95       1.4585      2.00000
     96       1.4836      2.00000
     97       1.5175      2.00000
     98       1.5429      2.00000
     99       1.5966      2.00000
    100       1.6133      2.00000
    101       1.6424      2.00000
    102       1.6782      2.00000
    103       1.7389      2.00000
    104       1.7865      2.00000
    105       1.8496      2.00000
    106       1.8704      2.00000
    107       1.9108      2.00000
    108       1.9461      2.00000
    109       1.9723      2.00000
    110       2.0220      2.00000
    111       2.0554      2.00000
    112       2.0751      2.00000
    113       2.1345      2.00000
    114       2.1548      2.00000
    115       2.1969      2.00000
    116       2.2170      2.00000
    117       2.2548      2.00000
    118       2.2821      2.00000
    119       2.3284      2.00000
    120       2.3549      2.00000
    121       2.3772      2.00000
    122       2.4274      2.00000
    123       2.4379      2.00000
    124       2.4810      2.00000
    125       2.5295      2.00000
    126       2.5589      2.00000
    127       2.5749      2.00000
    128       2.6153      2.00000
    129       2.6560      2.00000
    130       2.6838      2.00000
    131       2.7363      2.00000
    132       2.7566      2.00000
    133       2.7818      2.00000
    134       2.8324      2.00000
    135       2.8638      2.00000
    136       2.8851      2.00000
    137       2.9508      2.00000
    138       2.9759      2.00000
    139       3.0180      2.00000
    140       3.0388      2.00000
    141       3.0814      2.00000
    142       3.1163      2.00000
    143       3.1351      2.00000
    144       3.1866      2.00000
    145       3.2337      2.00000
    146       3.2579      2.00000
    147       3.2765      2.00000
    148       3.3061      2.00000
    149       3.3587      2.00000
    150       3.4004      2.00000
    151       3.4393      2.00000
    152       3.4667      2.00000
    153       3.4918      2.00000
    154       3.5532      2.00000
    155       3.5810      2.00000
    156       3.6226      2.00000
    157       3.6564      2.00000
    158       3.6650      2.00000
    159       3.7145      2.00000
    160       3.7321      2.00000
    161       3.7990      2.00000
    162       3.8178      2.00000
    163       3.8660      2.00000
    164       3.9146      2.00000
    165       3.9384      2.00000
    166       3.9837      2.00000
    167       4.0083      2.00000
    168       4.0596      2.00000
    169       4.0787      2.00000
    170       4.1216      2.00000
    171       4.1886      2.00000
    172       4.2074      2.00000
    173       4.2395      2.00000
    174       4.2649      2.00000
    175       4.3121      2.00000
    176       4.3334      2.00000
    177       4.3825      2.00000
    178       4.4067      2.00000
    179       4.4521      2.00000
    180       4.5047      2.00000
    181       4.5177      2.00000
    182       4.5601      2.00000
    183       4.5744      2.00000
    184       4.6447      2.00000
    185       4.6662      2.00000
[...]
    FORCOR:  cpu time    0.3953: real time    0.3966
    FORHAR:  cpu time    0.2938: real time    0.2939
    MIXING:  cpu time    0.0149: real time    0.0149
    OFIELD:  cpu time    0.0003: real time    0.0011

  FORCE on cell =-STRESS in cart. coord.  units (eV):
  Direction    XX          YY          ZZ          XY          YZ          ZX
  --------------------------------------------------------------------------------------
  Alpha Z   124.51729   124.51729   124.51729
  Ewald   -4316.48019 -4351.13008 -4351.53192    39.51449   -23.28197    -9.49931
  Hartree   343.94446   333.63463   340.69733    32.01530   -13.93846   -10.08256
  E(xc)   -1467.52043 -1467.62787 -1466.21038    -0.00625    -0.04751     0.03843
  Local   -2429.71651 -2394.53727 -2400.87609   -72.94518    35.33780    20.52079
  n-local  6040.81033  6042.94104  6033.26574     0.60110     0.57101    -0.15782
  augment -1317.42048 -1319.12988 -1318.53055    -0.38388    -0.35294     0.19233
  Kinetic  3026.54117  3035.51531  3039.44123     1.24417     1.85130    -1.52885
  Fock        0.00000     0.00000     0.00000     0.00000     0.00000     0.00000
  -------------------------------------------------------------------------------------
  Total       4.67563     4.18316     0.77264     0.03974     0.13923    -0.51698
  in kB       3.25201     2.90949     0.53739     0.02764     0.09684    -0.35957
  external pressure =        2.23 kB  Pullay stress =        0.00 kB


 VOLUME and BASIS-vectors are now :
 -----------------------------------------------------------------------------
  energy-cutoff  :      250.00
  volume of cell :     2303.56
      direct lattice vectors                 reciprocal lattice vectors
    13.706125017  0.000000000  0.000000000     0.072960082 -0.000084416 -0.000055168
     0.015923887 13.762834119  0.000000000     0.000000000  0.072659453 -0.000214163
     0.009275429  0.035993874 12.211704864     0.000000000  0.000000000  0.081888648

  length of vectors
    13.706125017 13.762843331 12.211761432     0.072960151  0.072659769  0.081888648


 FORCES acting on ions
    electron-ion (+dipol)            ewald-force                    non-local-force                 convergence-correction
 -----------------------------------------------------------------------------------------------
   0.229E+01 -.688E+01 0.231E+01   -.414E+00 0.713E+01 -.349E+01   -.167E+01 -.277E+00 0.100E+01   -.210E-03 -.298E-04 -.297E-03
   -.321E+01 0.118E+02 -.120E+01   0.293E+01 -.141E+02 0.669E+00   0.367E+00 0.212E+01 0.626E+00   -.234E-03 -.426E-03 -.356E-03
   0.467E+01 -.698E+01 0.776E+01   -.549E+01 0.601E+01 -.794E+01   0.925E+00 0.112E+01 0.209E-01   0.143E-03 -.271E-03 -.145E-04
   -.481E+01 0.994E+01 0.176E+02   0.431E+01 -.111E+02 -.184E+02   0.580E+00 0.129E+01 0.107E+01   0.951E-04 0.144E-03 -.963E-04
   -.632E+01 0.993E+01 0.698E+01   0.760E+01 -.112E+02 -.766E+01   -.100E+01 0.804E+00 0.605E+00   0.326E-04 0.341E-03 -.155E-03
   -.103E+02 -.955E+01 0.279E+01   0.117E+02 0.987E+01 -.341E+01   -.145E+01 -.103E-01 0.490E+00   0.207E-03 -.366E-03 -.167E-03
   0.764E+01 0.408E+00 0.170E+01   -.833E+01 -.109E-01 -.175E+01   0.963E+00 -.333E+00 0.955E-01   -.282E-03 -.597E-03 -.139E-03
   0.917E+01 0.100E+02 -.813E+01   -.935E+01 -.114E+02 0.848E+01   0.149E+00 0.126E+01 -.209E+00   -.186E-03 0.515E-03 0.126E-03
   0.522E+01 -.469E+01 0.591E+01   -.630E+01 0.332E+01 -.589E+01   0.971E+00 0.168E+01 0.120E+00   0.510E-04 -.419E-03 0.569E-04
   -.749E+01 0.125E+02 -.497E+01   0.650E+01 -.130E+02 0.488E+01   0.119E+01 0.378E+00 0.314E+00   0.171E-03 0.113E-03 0.539E-04
   0.103E+02 -.362E+01 0.526E+01   -.111E+02 0.379E+01 -.586E+01   0.753E+00 -.272E+00 0.346E+00   -.642E-04 0.120E-03 -.309E-03
   0.107E+02 -.182E+01 0.683E+01   -.119E+02 0.492E+00 -.782E+01   0.107E+01 0.142E+01 0.653E+00   -.569E-03 -.322E-03 -.102E-03
   0.974E+01 -.100E+02 -.117E+01   -.105E+02 0.111E+02 0.105E+01   0.788E+00 -.107E+01 0.104E+00   -.118E-03 0.617E-03 0.239E-03
   0.499E+01 0.200E+02 0.540E+01   -.523E+01 -.212E+02 -.535E+01   0.262E+00 0.106E+01 -.296E-01   -.233E-03 0.426E-03 0.517E-04
   -.943E+00 -.889E+01 0.498E+01   0.121E+01 0.104E+02 -.550E+01   -.355E+00 -.151E+01 0.663E+00   -.134E-03 -.226E-03 0.201E-03
   -.439E+00 -.492E+01 0.660E+00   -.101E+01 0.587E+01 -.118E+01   0.141E+01 -.804E+00 0.730E+00   0.679E-04 -.431E-03 0.658E-05
   -.310E+01 -.709E+01 0.245E+01   0.159E+01 0.227E+01 -.405E+01   0.135E+01 0.506E+01 0.140E+01   0.940E-04 -.626E-03 0.450E-03
   0.807E+01 -.136E+02 -.103E+02   -.958E+01 0.151E+02 0.858E+01   0.171E+01 -.139E+01 0.165E+01   0.495E-04 -.209E-03 0.932E-06
   0.405E+00 -.135E+02 0.875E+01   -.174E+01 0.892E+01 -.951E+01   0.112E+01 0.435E+01 0.921E+00   -.199E-04 -.329E-03 -.198E-03
   -.651E+01 0.697E+01 -.133E+02   0.259E+01 -.766E+01 0.130E+02   0.373E+01 0.462E+00 0.355E+00   0.208E-03 0.439E-03 -.505E-04
   -.459E+01 -.995E+01 -.135E+01   0.459E+01 0.107E+02 0.657E+00   -.313E-02 -.721E+00 0.853E+00   0.334E-03 0.237E-03 0.324E-03
   0.111E+01 0.136E+02 -.609E+01   -.404E+00 -.929E+01 0.453E+01   -.825E+00 -.443E+01 0.147E+01   -.338E-04 0.498E-03 0.181E-03
   -.734E+01 0.125E+02 -.121E+02   0.497E+01 -.161E+02 0.879E+01   0.255E+01 0.363E+01 0.301E+01   0.391E-03 0.195E-04 0.595E-04
   -.434E+01 0.320E+01 -.721E+01   0.171E+01 -.100E+01 0.871E+01   0.244E+01 -.224E+01 -.127E+01   0.777E-04 0.245E-03 0.184E-03
   -.435E+01 -.163E+01 -.823E+01   0.274E+01 -.652E-01 0.913E+01   0.132E+01 0.128E+01 -.112E+01   -.162E-03 0.807E-04 0.493E-03
   0.506E+01 0.142E+01 0.823E+01   -.260E+01 0.385E+01 -.888E+01   -.228E+01 -.519E+01 0.654E+00   0.683E-04 0.424E-03 -.315E-03
   0.103E+02 -.689E+01 0.674E+01   -.534E+01 0.502E+01 -.681E+01   -.466E+01 0.186E+01 -.223E-01   -.308E-03 0.207E-03 -.172E-03
   -.662E+01 0.174E+02 0.113E+02   0.679E+01 -.207E+02 -.112E+02   0.924E-02 0.298E+01 0.276E-01   -.186E-03 0.367E-03 0.361E-04
   0.295E+01 -.115E+02 -.531E+01   -.508E+00 0.109E+02 0.451E+01   -.275E+01 0.686E+00 0.696E+00   -.809E-04 -.461E-03 -.665E-04
   -.630E+01 -.351E+01 -.579E+01   0.443E+01 0.264E+01 0.468E+01   0.199E+01 0.638E+00 0.726E+00   0.312E-03 -.630E-04 0.208E-03
   0.267E+01 0.871E+01 -.107E+02   -.243E+01 -.128E+02 0.107E+02   -.189E-01 0.368E+01 0.986E-01   0.951E-04 0.260E-03 0.173E-03
   -.597E+01 0.578E+01 0.114E+02   0.742E+01 -.283E+01 -.125E+02   -.135E+01 -.315E+01 0.100E+01   -.871E-04 0.429E-03 -.125E-03
   -.300E+01 0.760E+01 -.292E+02   0.467E+01 -.840E+01 0.309E+02   -.174E+01 0.894E+00 -.174E+01   -.168E-03 0.548E-03 0.351E-03
   0.174E+02 -.324E+02 0.380E+01   -.178E+02 0.355E+02 -.360E+01   0.376E+00 -.265E+01 -.278E+00   -.318E-03 0.773E-03 -.150E-03
   -.145E+02 0.233E+02 -.436E+01   0.168E+02 -.257E+02 0.603E+01   -.225E+01 0.249E+01 -.152E+01   0.816E-04 -.771E-03 -.575E-04
   -.944E+01 -.792E+01 0.262E+01   0.969E+01 0.816E+01 -.222E+01   -.140E+00 -.257E+00 -.560E+00   0.348E-03 -.391E-03 -.245E-03
   -.252E+01 -.222E+01 -.675E+01   0.215E+01 0.377E+01 0.810E+01   0.402E+00 -.165E+01 -.128E+01   0.301E-03 0.136E-03 -.302E-03
   -.687E+01 0.520E+01 -.726E+01   0.788E+01 -.222E+01 0.783E+01   -.110E+01 -.291E+01 -.718E+00   -.398E-04 0.597E-03 0.260E-03
   0.290E+02 -.451E+01 0.294E+02   -.336E+02 0.620E+01 -.315E+02   0.468E+01 -.133E+01 0.209E+01   0.387E-04 -.352E-03 -.527E-03
   0.147E+02 -.345E+02 -.826E+01   -.150E+02 0.386E+02 0.936E+01   0.342E+00 -.391E+01 -.132E+01   -.583E-03 -.236E-04 -.220E-03
   -.428E+02 0.228E+02 -.216E+01   0.461E+02 -.243E+02 0.214E+01   -.336E+01 0.152E+01 -.131E+00   0.246E-03 0.386E-03 -.196E-04
   0.753E+01 -.168E+02 -.362E+02   -.873E+01 0.173E+02 0.380E+02   0.894E+00 -.307E+00 -.178E+01   0.435E-03 -.490E-03 0.312E-03
   0.517E+02 -.107E+02 -.225E+01   -.567E+02 0.118E+02 0.202E+01   0.467E+01 -.131E+01 0.208E+00   -.149E-03 0.565E-03 -.636E-04
   -.210E+02 0.182E+02 -.534E+01   0.246E+02 -.206E+02 0.631E+01   -.373E+01 0.250E+01 -.853E+00   -.303E-03 -.316E-03 -.201E-03
   0.357E+01 -.573E+01 -.308E+01   -.397E+01 0.549E+01 0.303E+01   0.604E+00 0.262E+00 0.290E+00   -.455E-04 0.280E-03 -.323E-04
   -.846E+01 -.140E+01 -.264E+02   0.976E+01 0.384E+01 0.276E+02   -.133E+01 -.264E+01 -.136E+01   -.436E-04 -.670E-03 -.172E-03
   -.304E+02 -.443E+01 -.301E+02   0.338E+02 0.597E+01 0.323E+02   -.345E+01 -.153E+01 -.234E+01   0.363E-03 -.120E-04 -.204E-03
   -.364E+02 -.154E+01 -.317E+02   0.411E+02 0.103E+01 0.341E+02   -.446E+01 0.488E+00 -.243E+01   -.205E-04 0.107E-03 -.113E-03
   -.622E+01 0.938E+01 -.448E+01   0.629E+01 -.104E+02 0.537E+01   -.273E+00 0.130E+01 -.766E+00   0.267E-03 0.398E-03 -.280E-03
   0.315E+02 0.145E+02 -.773E+00   -.339E+02 -.173E+02 0.587E+00   0.224E+01 0.286E+01 0.172E+00   -.480E-03 -.713E-03 -.153E-03
   0.793E+01 0.177E+02 0.283E+02   -.814E+01 -.203E+02 -.307E+02   0.216E+00 0.268E+01 0.249E+01   -.190E-03 0.371E-03 -.266E-04
   0.465E+01 0.821E+01 0.242E+02   -.525E+01 -.114E+02 -.267E+02   0.652E+00 0.294E+01 0.247E+01   0.108E-03 -.278E-03 0.296E-03
   0.349E+02 0.178E+02 0.296E+02   -.392E+02 -.188E+02 -.317E+02   0.390E+01 0.109E+01 0.221E+01   -.152E-03 0.618E-03 -.334E-03
   0.870E+01 0.104E+02 0.372E+00   -.952E+01 -.119E+02 -.117E+00   0.738E+00 0.148E+01 -.243E+00   -.420E-04 -.617E-04 0.150E-03
   -.248E+02 -.191E+02 0.120E+01   0.277E+02 0.209E+02 -.864E+00   -.290E+01 -.199E+01 -.495E+00   -.666E-04 -.439E-03 -.228E-04
   0.678E+01 -.387E+02 -.540E+01   -.719E+01 0.420E+02 0.623E+01   0.420E+00 -.296E+01 -.538E+00   0.123E-03 -.921E-04 0.209E-03
   -.220E+02 0.372E+02 -.724E+01   0.232E+02 -.413E+02 0.943E+01   -.133E+01 0.399E+01 -.202E+01   0.250E-03 -.435E-04 0.223E-03
   0.290E+02 0.142E+02 0.339E+01   -.328E+02 -.145E+02 -.172E+01   0.390E+01 0.282E+00 -.154E+01   0.183E-03 0.492E-03 -.247E-03
   -.213E+01 -.201E+02 -.310E+02   0.295E+01 0.237E+02 0.328E+02   -.781E+00 -.312E+01 -.163E+01   0.129E-03 -.352E-03 0.626E-03
   0.653E+01 -.722E+01 -.190E+01   -.855E+01 0.941E+01 0.348E+01   0.205E+01 -.215E+01 -.126E+01   -.780E-04 -.305E-03 0.279E-03
   0.902E+01 0.203E+01 0.240E+01   -.105E+02 -.952E+00 -.221E+01   0.138E+01 -.990E+00 -.112E+00   -.165E-03 0.631E-03 0.522E-04
   -.258E+02 -.278E+02 0.381E+02   0.272E+02 0.316E+02 -.397E+02   -.126E+01 -.378E+01 0.166E+01   0.241E-03 -.661E-03 -.192E-03
   -.166E+02 0.251E+02 -.247E+01   0.187E+02 -.270E+02 0.331E+01   -.198E+01 0.202E+01 -.849E+00   0.162E-03 0.857E-03 0.109E-03
   0.847E+01 -.347E+02 -.405E+01   -.722E+01 0.386E+02 0.529E+01   -.104E+01 -.364E+01 -.111E+01   -.316E-03 -.705E-03 0.284E-03
   -.364E+01 -.618E+01 -.987E+00   0.503E+01 0.694E+01 0.200E+01   -.148E+01 -.921E+00 -.117E+01   0.176E-03 0.243E-04 0.794E-05
   0.685E+01 -.227E+02 0.304E+02   -.568E+01 0.259E+02 -.330E+02   -.109E+01 -.363E+01 0.282E+01   0.409E-04 -.425E-03 0.186E-03
   -.212E+02 0.320E+02 0.420E+02   0.241E+02 -.344E+02 -.453E+02   -.303E+01 0.271E+01 0.316E+01   -.333E-03 0.227E-03 0.101E-03
   -.333E+01 0.518E+01 0.369E+02   0.516E+01 -.484E+01 -.401E+02   -.177E+01 -.453E+00 0.318E+01   -.385E-03 -.233E-03 -.407E-04
   -.181E+02 0.371E+02 -.761E+00   0.188E+02 -.400E+02 0.539E+00   -.745E+00 0.291E+01 0.232E+00   0.133E-03 0.522E-03 0.323E-03
   -.191E+02 -.484E+02 0.218E+01   0.207E+02 0.517E+02 -.137E+01   -.172E+01 -.338E+01 -.960E+00   0.462E-03 -.515E-03 0.800E-04
   -.595E+01 0.337E+02 -.219E+02   0.550E+01 -.387E+02 0.232E+02   0.727E+00 0.490E+01 -.135E+01   0.121E-03 0.666E-03 -.845E-04
   0.522E+02 -.194E+02 -.267E+02   -.568E+02 0.198E+02 0.297E+02   0.440E+01 -.442E+00 -.295E+01   -.380E-03 -.575E-03 -.304E-03
 -----------------------------------------------------------------------------------------------
   -.914E+00 -.573E+01 -.475E+01   0.782E-13 -.355E-14 0.163E-12   0.912E+00 0.572E+01 0.474E+01   -.560E-03 0.480E-03 0.141E-03
 
 
 POSITION                                       TOTAL-FORCE (eV/Angst)
 -----------------------------------------------------------------------------------
      1.05790     10.90520      6.30289         0.205564     -0.020598     -0.174874
      2.82171      8.66908      3.15068         0.088715     -0.210140      0.091645
      4.14568      5.63924      6.11847         0.105068      0.146756     -0.164902
      8.34445     11.21460      9.21026         0.071770      0.096117      0.298702
      6.57019      0.06007      0.13368         0.279478     -0.436727     -0.075424
      9.43807      8.17447      0.08291        -0.087283      0.307368     -0.125318
      5.56028      9.51929     12.14120         0.276071      0.062899      0.049849
      4.15911     12.60280      2.94082        -0.028778     -0.138770      0.138596
      6.96680      7.13334      9.15046        -0.114536      0.306002      0.136996
      9.69476      1.43320      2.97881         0.205755     -0.148674      0.222580
      8.34699      4.01012      0.08488        -0.035050     -0.096014     -0.250217
      0.25996      7.05446      6.20873        -0.121089      0.092265     -0.340168
      2.88046      1.08914     12.19000         0.055499     -0.003492     -0.015089
      0.06282      0.16919      9.11331         0.025012     -0.178635      0.028708
      1.33704     10.78490      0.02840        -0.093174     -0.003564      0.143928
      0.21825      6.77561     12.17295        -0.042978      0.145939      0.212620
      2.96762      8.67648      9.25021        -0.156183      0.242636     -0.204602
     12.43290      9.51083      3.11329         0.196913      0.104602     -0.102920
     11.01970      5.93314      9.14336        -0.218874     -0.203209      0.157623
     12.60388      2.82705     12.20387        -0.183849     -0.226587      0.047811
      8.20675      4.09074      6.06940        -0.007405      0.047500      0.156951
      6.71698     13.51680      6.20592        -0.119794     -0.117727     -0.086003
      8.39392     11.15650      3.32227         0.186059      0.106071     -0.339858
     11.20138     12.30169     12.14628        -0.197237     -0.041974      0.232962
      1.48397      4.27852      9.09596        -0.283953     -0.414553     -0.210704
      2.57349      1.06173      6.11015         0.175738      0.071314      0.007216
      5.14529      2.94912      3.11468         0.296325     -0.010771     -0.093844
     12.39660      2.87135      6.04955         0.177781     -0.248663      0.045372
      6.68771      6.92695      3.16406        -0.308890      0.099025     -0.111993
     11.09360      5.61062      3.11558         0.127177     -0.232033     -0.381618
      5.39277      3.06954      9.18278         0.224266     -0.438286      0.102167
      9.52557      1.22293      9.17560         0.103215     -0.200140     -0.186245
      0.14706     13.77960     12.13640        -0.068938      0.095070     -0.002715
      5.46695      2.60049      0.04210        -0.059284      0.420515     -0.078560
      2.71074      8.22867      0.00272        -0.025504      0.035535      0.151449
     10.90700      5.53509     12.20640         0.110356     -0.016237     -0.160478
      8.20409     10.96110     12.09770         0.039594     -0.090391      0.072209
      6.85538     13.74610      3.05275        -0.096308      0.056435     -0.154593
      3.94153      5.51657      3.06830         0.111920      0.357851      0.046671
      1.39558     10.98830      3.04537         0.044600      0.199362     -0.223415
     12.28130      2.69878      3.02910         0.015423      0.015369     -0.144273
      9.63997      8.21560      3.06021        -0.306340      0.122602     -0.042663
      2.75806      1.35899      2.94491        -0.411202     -0.169955     -0.015264
      0.12419      6.78288      2.92869        -0.129343      0.120122      0.116988
      8.17516      4.09244      2.92246         0.201510      0.027643      0.240684
      5.42220      9.68932      2.98314        -0.032419     -0.204265     -0.126252
     11.02430     12.44080      3.15845        -0.125567      0.014924     -0.150392
      1.39264      4.19830      0.03351         0.247389     -0.025450     -0.008905
      9.56534      1.33021     12.19664        -0.203791      0.265367      0.128860
      6.91463      6.91323     12.18620        -0.120360      0.026585     -0.013411
      4.12902     12.37679     12.17836         0.000025      0.127430      0.081694
     12.42370      9.68654     12.11050         0.047410     -0.260696      0.023406
      0.02177     13.61050      6.09932        -0.330140      0.088155      0.050038
      5.44616      2.80820      6.13425        -0.080816     -0.024814      0.011832
      2.77161      8.31384      6.09393         0.057380     -0.179698     -0.159704
     10.97640      5.45408      6.05349         0.008932      0.319987      0.287689
      8.17620     11.00960      6.17147        -0.058301     -0.070851      0.178403
      6.83856     13.69470      9.20917         0.062146     -0.036343      0.136351
      4.12377      5.58080      9.08355         0.037779      0.437689      0.159279
      1.28977     11.01530      9.08276         0.037136      0.031792      0.321704
     12.42190      2.71233      9.10240        -0.135217      0.089926      0.084082
      9.47245      8.35026      9.14562         0.093273      0.017624      0.025488
      2.67408      1.34460      9.18898         0.122634      0.068954     -0.001328
     13.71630      6.94676      9.07727         0.219807      0.325312      0.131853
      8.21166      4.21478      9.21685        -0.090786     -0.156107     -0.153968
      5.61905      9.76857      9.08719         0.070447     -0.366846      0.190356
     10.97750     12.30000      9.14139        -0.107872      0.235510     -0.129054
      1.36374      4.20554      6.03435         0.056082     -0.116345      0.054170
      9.58350      1.36654      5.98907        -0.013368     -0.068205      0.010781
      6.74348      6.87691      6.20082        -0.076563     -0.094558     -0.155452
      3.99465     12.29880      6.03959         0.279935     -0.036969     -0.090962
     12.43550      9.50631      6.09308        -0.192990     -0.039964      0.097456
 -----------------------------------------------------------------------------------
    total drift:                               -0.002057     -0.009223     -0.004989


--------------------------------------------------------------------------------------------------------



  FREE ENERGIE OF THE ION-ELECTRON SYSTEM (eV)
  ---------------------------------------------------
  free  energy   TOTEN  =      -269.43985573 eV

  energy  without entropy=     -269.43985573  energy(sigma->0) =     -269.43985573
 


--------------------------------------------------------------------------------------------------------


    POTLOK:  cpu time    0.1700: real time    0.1700


--------------------------------------------------------------------------------------------------------


     LOOP+:  cpu time   50.2615: real time   50.6829
    4ORBIT:  cpu time    0.0000: real time    0.0000

 total amount of memory used by VASP MPI-rank0    78164. kBytes
=======================================================================

   base      :      30000. kBytes
   nonlr-proj:       5685. kBytes
   fftplans  :       8135. kBytes
   grid      :      14079. kBytes
   one-center:        146. kBytes
   wavefun   :      20119. kBytes
 
  
  
 General timing and accounting informations for this job:
 ========================================================
  
                  Total CPU time used (sec):       58.260
                            User time (sec):       55.596
                          System time (sec):        2.664
                         Elapsed time (sec):       59.388
  
                   Maximum memory used (kb):      730608.
                   Average memory used (kb):           0.
  
                          Minor page faults:        32591
                          Major page faults:            8
                 Voluntary context switches:         5996
