 vasp.6.0.8 29Jun18 (build Mar 14 2019 11:44:20) complex                        
  
 executed on             LinuxIFC date 2021.02.02  23:36:03
 running   64 mpi-ranks, with    1 threads/rank
 distrk:  each k-point on   16 cores,    4 groups
 distr:  one band on NCORES_PER_BAND=   4 cores,    4 groups


--------------------------------------------------------------------------------------------------------


 INCAR:
 POTCAR:    PAW_PBE Ge 05Jan2001                  
 POTCAR:    PAW_PBE Sb 06Sep2000                  
 POTCAR:    PAW_PBE Te 08Apr2002                  
 POTCAR:    PAW_PBE Ge 05Jan2001                  
   VRHFIN =Ge: s2p2                                                             
   LEXCH  = PE                                                                  
   EATOM  =   104.9960 eV,    7.7170 Ry                                         
                                                                                
   TITEL  = PAW_PBE Ge 05Jan2001                                                
   LULTRA =        F    use ultrasoft PP ?                                      
   IUNSCR =        1    unscreen: 0-lin 1-nonlin 2-no                           
   RPACOR =    2.170    partial core radius                                     
   POMASS =   72.610; ZVAL   =    4.000    mass and valenz                      
   RCORE  =    2.300    outmost cutoff radius                                   
   RWIGS  =    2.300; RWIGS  =    1.217    wigner-seitz radius (au A)           
   ENMAX  =  173.807; ENMIN  =  130.355 eV                                      
   ICORE  =        3    local potential                                         
   LCOR   =        T    correct aug charges                                     
   LPAW   =        T    paw PP                                                  
   EAUG   =  385.843                                                            
   DEXC   =    0.000                                                            
   RMAX   =    2.342    core radius for proj-oper                               
   RAUG   =    1.300    factor for augmentation sphere                          
   RDEP   =    2.318    radius for radial grids                                 
   RDEPT  =    2.103    core radius for aug-charge                              
                                                                                
   Atomic configuration                                                         
   10 entries                                                                   
     n  l   j            E        occ.                                          
     1  0  0.50    -10959.8463   2.0000                                         
     2  0  0.50     -1371.6056   2.0000                                         
     2  1  1.50     -1198.4791   6.0000                                         
     3  0  0.50      -168.4733   2.0000                                         
     3  1  1.50      -115.6019   6.0000                                         
     3  2  2.50       -29.3106  10.0000                                         
     4  0  0.50       -11.7309   2.0000                                         
     4  1  0.50        -3.8952   2.0000                                         
     4  2  1.50        -4.0817   0.0000                                         
     4  3  2.50        -4.0817   0.0000                                         
   Description                                                                  
     l       E           TYP  RCUT    TYP  RCUT                                 
     0    -11.7309493     23  2.300                                             
     0     -7.4578696     23  2.300                                             
     1     -3.8952261     23  2.300                                             
     1      6.1178114     23  2.300                                             
     2     -4.0817478     23  2.300                                             
     3     -1.3605826      7  2.300                                             
  local pseudopotential read in
  partial core-charges read in
  partial kinetic energy density read in
  atomic valenz-charges read in
  non local Contribution for L=           0  read in
    real space projection operators read in
  non local Contribution for L=           0  read in
    real space projection operators read in
  non local Contribution for L=           1  read in
    real space projection operators read in
  non local Contribution for L=           1  read in
    real space projection operators read in
  non local Contribution for L=           2  read in
    real space projection operators read in
    PAW grid and wavefunctions read in
 
   number of l-projection  operators is LMAX  =           5
   number of lm-projection operators is LMMAX =          13
 
 POTCAR:    PAW_PBE Sb 06Sep2000                  
   VRHFIN =Sb: s2p3                                                             
   LEXCH  = PE                                                                  
   EATOM  =   149.9515 eV,   11.0211 Ry                                         
                                                                                
   TITEL  = PAW_PBE Sb 06Sep2000                                                
   LULTRA =        F    use ultrasoft PP ?                                      
   IUNSCR =        1    unscreen: 0-lin 1-nonlin 2-no                           
   RPACOR =    2.200    partial core radius                                     
   POMASS =  121.750; ZVAL   =    5.000    mass and valenz                      
   RCORE  =    2.300    outmost cutoff radius                                   
   RWIGS  =    2.980; RWIGS  =    1.577    wigner-seitz radius (au A)           
   ENMAX  =  172.069; ENMIN  =  129.052 eV                                      
   ICORE  =        3    local potential                                         
   LCOR   =        T    correct aug charges                                     
   LPAW   =        T    paw PP                                                  
   EAUG   =  380.513                                                            
   DEXC   =    0.000                                                            
   RMAX   =    2.346    core radius for proj-oper                               
   RAUG   =    1.300    factor for augmentation sphere                          
   RDEP   =    2.360    radius for radial grids                                 
   RDEPT  =    2.192    core radius for aug-charge                              
                                                                                
   Atomic configuration                                                         
   13 entries                                                                   
     n  l   j            E        occ.                                          
     1  0  0.50    -30298.2797   2.0000                                         
     2  0  0.50     -4610.2252   2.0000                                         
     2  1  1.50     -4138.3407   6.0000                                         
     3  0  0.50      -903.8815   2.0000                                         
     3  1  1.50      -750.1337   6.0000                                         
     3  2  2.50      -515.7092  10.0000                                         
     4  0  0.50      -148.8034   2.0000                                         
     4  1  1.50      -101.7581   6.0000                                         
     4  2  2.50       -33.5048  10.0000                                         
     5  0  0.50       -12.8298   2.0000                                         
     5  1  0.50        -4.8276   3.0000                                         
     5  2  1.50        -4.0817   0.0000                                         
     4  3  2.50        -4.0817   0.0000                                         
   Description                                                                  
     l       E           TYP  RCUT    TYP  RCUT                                 
     0    -12.8297861     23  2.300                                             
     0     13.6058260     23  2.300                                             
     1     -4.8275512     23  2.300                                             
     1     -0.7245443     23  2.300                                             
     2     -4.0817478     23  2.300                                             
     3     -1.3605826     23  2.300                                             
  local pseudopotential read in
  partial core-charges read in
  partial kinetic energy density read in
  atomic valenz-charges read in
  non local Contribution for L=           0  read in
    real space projection operators read in
  non local Contribution for L=           0  read in
    real space projection operators read in
  non local Contribution for L=           1  read in
    real space projection operators read in
  non local Contribution for L=           1  read in
    real space projection operators read in
  non local Contribution for L=           2  read in
    real space projection operators read in
    PAW grid and wavefunctions read in
 
   number of l-projection  operators is LMAX  =           5
   number of lm-projection operators is LMMAX =          13
 
 POTCAR:    PAW_PBE Te 08Apr2002                  
   VRHFIN =Te: s2p4                                                             
   LEXCH  = PE                                                                  
   EATOM  =   223.2721 eV,   16.4100 Ry                                         
                                                                                
   TITEL  = PAW_PBE Te 08Apr2002                                                
   LULTRA =        F    use ultrasoft PP ?                                      
   IUNSCR =        1    unscreen: 0-lin 1-nonlin 2-no                           
   RPACOR =    2.200    partial core radius                                     
   POMASS =  127.600; ZVAL   =    6.000    mass and valenz                      
   RCORE  =    2.300    outmost cutoff radius                                   
   RWIGS  =    2.900; RWIGS  =    1.535    wigner-seitz radius (au A)           
   ENMAX  =  174.982; ENMIN  =  131.236 eV                                      
   ICORE  =        3    local potential                                         
   LCOR   =        T    correct aug charges                                     
   LPAW   =        T    paw PP                                                  
   EAUG   =  368.792                                                            
   DEXC   =    0.000                                                            
   RMAX   =    2.345    core radius for proj-oper                               
   RAUG   =    1.300    factor for augmentation sphere                          
   RDEP   =    2.397    radius for radial grids                                 
   RDEPT  =    2.174    core radius for aug-charge                              
                                                                                
   Atomic configuration                                                         
   13 entries                                                                   
     n  l   j            E        occ.                                          
     1  0  0.50    -31621.2075   2.0000                                         
     2  0  0.50     -4848.7941   2.0000                                         
     2  1  1.50     -4352.1960   6.0000                                         
     3  0  0.50      -964.9612   2.0000                                         
     3  1  1.50      -803.6179   6.0000                                         
     3  2  2.50      -559.8710  10.0000                                         
     4  0  0.50      -164.3522   2.0000                                         
     4  1  1.50      -114.3756   6.0000                                         
     4  2  2.50       -41.6483  10.0000                                         
     5  0  0.50       -15.1072   2.0000                                         
     5  1  0.50        -5.9526   4.0000                                         
     5  2  1.50        -5.4423   0.0000                                         
     4  3  2.50        -5.4423   0.0000                                         
   Description                                                                  
     l       E           TYP  RCUT    TYP  RCUT                                 
     0    -15.1072389     23  2.300                                             
     0    -16.4678215     23  2.300                                             
     1     -5.9526306     23  2.300                                             
     1     -2.4873968     23  2.300                                             
     2     -5.4423304     23  2.300                                             
     3     -1.3605826     23  2.300                                             
  local pseudopotential read in
  partial core-charges read in
  partial kinetic energy density read in
  atomic valenz-charges read in
  non local Contribution for L=           0  read in
    real space projection operators read in
  non local Contribution for L=           0  read in
    real space projection operators read in
  non local Contribution for L=           1  read in
    real space projection operators read in
  non local Contribution for L=           1  read in
    real space projection operators read in
  non local Contribution for L=           2  read in
    real space projection operators read in
    PAW grid and wavefunctions read in
 
   number of l-projection  operators is LMAX  =           5
   number of lm-projection operators is LMMAX =          13
 
 Optimization of the real space projectors (new method)

 maximal supplied QI-value         = 16.25
 optimisation between [QCUT,QGAM] = [  7.96, 16.09] = [ 17.76, 72.49] Ry 
 Optimized for a Real-space Cutoff    1.70 Angstroem

   l    n(q)    QCUT    max X(q) W(low)/X(q) W(high)/X(q)  e(spline) 
   0      8     7.963    65.336    0.10E-03    0.15E-03    0.79E-07
   0      8     7.963    52.220    0.10E-03    0.15E-03    0.78E-07
   1      8     7.963    36.409    0.24E-03    0.40E-04    0.27E-06
   1      8     7.963    21.334    0.25E-03    0.31E-04    0.27E-06
   2      7     7.963     4.673    0.11E-03    0.19E-03    0.65E-07
 Optimization of the real space projectors (new method)

 maximal supplied QI-value         = 16.25
 optimisation between [QCUT,QGAM] = [  7.96, 16.09] = [ 17.76, 72.49] Ry 
 Optimized for a Real-space Cutoff    1.75 Angstroem

   l    n(q)    QCUT    max X(q) W(low)/X(q) W(high)/X(q)  e(spline) 
   0      8     7.963    19.000    0.75E-04    0.15E-03    0.82E-07
   0      8     7.963     9.057    0.89E-04    0.18E-03    0.10E-06
   1      8     7.963   125.345    0.22E-03    0.74E-04    0.27E-06
   1      8     7.963    79.963    0.21E-03    0.75E-04    0.26E-06
   2      7     7.963     6.963    0.64E-04    0.13E-03    0.56E-07
 Optimization of the real space projectors (new method)

 maximal supplied QI-value         = 16.25
 optimisation between [QCUT,QGAM] = [  7.96, 16.09] = [ 17.76, 72.49] Ry 
 Optimized for a Real-space Cutoff    1.75 Angstroem

   l    n(q)    QCUT    max X(q) W(low)/X(q) W(high)/X(q)  e(spline) 
   0      8     7.963   224.858    0.89E-04    0.20E-03    0.93E-07
   0      8     7.963   205.313    0.90E-04    0.20E-03    0.94E-07
   1      8     7.963   119.695    0.22E-03    0.72E-04    0.27E-06
   1      8     7.963    84.282    0.22E-03    0.72E-04    0.27E-06
   2      7     7.963     5.599    0.62E-04    0.12E-03    0.56E-07
  PAW_PBE Ge 05Jan2001                  :
 energy of atom  1       EATOM= -104.9960
 kinetic energy error for atom=    0.0013 (will be added to EATOM!!)
  PAW_PBE Sb 06Sep2000                  :
 energy of atom  2       EATOM= -149.9515
 kinetic energy error for atom=    0.0023 (will be added to EATOM!!)
  PAW_PBE Te 08Apr2002                  :
 energy of atom  3       EATOM= -223.2721
 kinetic energy error for atom=    0.0032 (will be added to EATOM!!)
 
 
 POSCAR: Ge Sb Te
  positions in cartesian coordinates
  No initial velocities read in
 exchange correlation table for  LEXCH =        8
   RHO(1)=    0.500       N(1)  =     2000
   RHO(2)=  100.500       N(2)  =     4000
 


--------------------------------------------------------------------------------------------------------


 ion  position               nearest neighbor table
   1  0.083  0.770  0.534-  60 2.70  72 2.71  53 2.91  55 3.02  71 3.20
   2  0.239  0.597  0.257-  46 2.73  40 2.83  55 2.90  39 3.00
   3  0.356  0.417  0.501-  70 2.69  54 2.90  55 3.13  39 3.13  59 3.19
   4  0.624  0.819  0.749-  57 2.87  58 2.90  37 2.94  67 2.99  24 3.32
   5  0.485  0.045  0.020-  34 2.73  49 2.89  38 3.18  51 3.28
   6  0.698  0.575  0.954-  37 2.82  62 2.85  52 3.00  36 3.03  50 3.15
   7  0.385  0.638  0.979-  35 2.65  46 2.94  50 3.02  66 3.06
   8  0.313  0.909  0.214-  43 2.66  51 2.74  38 3.12  40 3.13
   9  0.493  0.491  0.699-  70 2.82  62 2.97  66 3.04
  10  0.687  0.072  0.249-  38 2.72  47 2.92  69 2.92  45 3.02
  11  0.609  0.274  0.947-  65 2.81  50 2.88  34 3.01  49 3.12
  12  0.026  0.502  0.461-  72 2.85  44 2.89  55 2.97  56 3.07  68 3.19
  13  0.221  0.061  0.970-  51 2.78  63 3.12  48 3.14  43 3.17
  14  0.023  0.984  0.761-  33 2.91  63 3.01  61 3.03  53 3.13  67 3.30
  15  0.152  0.800  0.017-  51 2.72  40 2.84  35 3.03  33 3.25
  16  0.016  0.443  0.955-  36 2.84  48 2.88  64 2.93
  17  0.203  0.604  0.755-  60 2.84  35 2.99  66 3.02  59 3.04  64 3.25  55 3.35
  18  0.914  0.682  0.255-  72 2.87  42 3.08  52 3.23  47 3.29  44 3.37  40 3.43
  19  0.808  0.398  0.758-  36 2.78  62 2.82  64 3.09  65 3.31  61 3.47  56 3.49  25 3.71
  20  0.938  0.188  0.981-  48 2.91  61 3.00  33 3.01  41 3.22  36 3.23
  21  0.624  0.279  0.488-  54 2.85  65 2.93  45 3.08  70 3.09  69 3.20  56 3.44
  22  0.436  0.980  0.520-  71 2.86  57 2.90  58 3.06  38 3.27  26 3.38  54 3.45
  23  0.632  0.780  0.301-  42 2.94  47 3.04  57 3.04  38 3.50  46 3.64
  24  0.773  0.833  0.960-  37 2.80  52 2.88  67 3.29   4 3.32  49 3.44  47 3.58
  25  0.061  0.297  0.702-  59 3.04  48 3.06  68 3.08  61 3.11  64 3.21  63 3.35  28 3.52  19 3.71

  26  0.193  0.024  0.465-  71 2.92  43 3.07  53 3.07  22 3.38  63 3.39
  27  0.364  0.184  0.289-  54 2.94  45 3.00  39 3.10  43 3.13  38 3.16
  28  0.930  0.211  0.484-  68 2.75  56 2.85  41 3.08  61 3.39  69 3.49  25 3.52  53 3.67
  29  0.494  0.486  0.213-  39 2.75  46 2.90  50 3.02  70 3.34  45 3.40
  30  0.839  0.382  0.241-  44 2.71  41 2.75  56 3.00  36 3.25  42 3.69
  31  0.384  0.223  0.760-  34 2.78  59 2.99  54 3.20  63 3.22  65 3.34  58 3.65
  32  0.708  0.039  0.726-  49 2.99  67 3.03  69 3.12  61 3.19  58 3.22  65 3.38
  33  0.997  0.982  0.992-  14 2.91  20 3.01  15 3.25
  34  0.401  0.221  0.982-   5 2.73  31 2.78  11 3.01
  35  0.200  0.591  0.995-   7 2.65  17 2.99  15 3.03
  36  0.820  0.391  0.981-  19 2.78  16 2.84   6 3.03  20 3.23  30 3.25
  37  0.592  0.750  0.970-  24 2.80   6 2.82   4 2.94
  38  0.507  0.002  0.271-  10 2.72   8 3.12  27 3.16   5 3.18  22 3.27  23 3.50
  39  0.324  0.399  0.254-  29 2.75   2 3.00  27 3.10   3 3.13
  40  0.139  0.777  0.243-   2 2.83  15 2.84   8 3.13  18 3.43
  41  0.941  0.209  0.238-  30 2.75  28 3.08  20 3.22
  42  0.734  0.598  0.360-  23 2.94  18 3.08  72 3.26  56 3.43  70 3.57  30 3.69
  43  0.192  0.062  0.221-   8 2.66  26 3.07  27 3.13  13 3.17
  44  0.014  0.462  0.235-  30 2.71  12 2.89  18 3.37
  45  0.564  0.255  0.253-  27 3.00  10 3.02  21 3.08  29 3.40
  46  0.410  0.678  0.207-   2 2.73  29 2.90   7 2.94  23 3.64
  47  0.804  0.894  0.234-  10 2.92  23 3.04  18 3.29  24 3.58
  48  0.126  0.266  0.937-  16 2.88  20 2.91  25 3.06  13 3.14  59 3.66
  49  0.688  0.064  0.962-   5 2.89  32 2.99  11 3.12  24 3.44
  50  0.512  0.456  0.975-  11 2.88   7 3.02  29 3.02   6 3.15
  51  0.323  0.887  0.996-  15 2.72   8 2.74  13 2.78   5 3.28
  52  0.890  0.660  0.999-  24 2.88   6 3.00  18 3.23
  53  0.988  0.958  0.515-   1 2.91  26 3.07  14 3.13  67 3.52  28 3.67
  54  0.428  0.221  0.508-  21 2.85   3 2.90  27 2.94  31 3.20  22 3.45
  55  0.212  0.597  0.487-   2 2.90  12 2.97   1 3.02   3 3.13  17 3.35
  56  0.838  0.396  0.480-  28 2.85  30 3.00  12 3.07  42 3.43  21 3.44  19 3.49
  57  0.563  0.809  0.529-   4 2.87  22 2.90  23 3.04  71 3.61
  58  0.485  0.981  0.760-   4 2.90  22 3.06  32 3.22  31 3.65
  59  0.250  0.396  0.727-  31 2.99  17 3.04  25 3.04   3 3.19  48 3.66
  60  0.052  0.751  0.747-   1 2.70  17 2.84  67 3.27  64 3.57
  61  0.893  0.164  0.748-  20 3.00  14 3.03  25 3.11  32 3.19  28 3.39  19 3.47
  62  0.690  0.566  0.727-  19 2.82   6 2.85   9 2.97
  63  0.201  0.095  0.722-  14 3.01  13 3.12  31 3.22  25 3.35  26 3.39
  64  0.991  0.513  0.732-  16 2.93  19 3.09  25 3.21  17 3.25  60 3.57
  65  0.620  0.266  0.723-  11 2.81  21 2.93  19 3.31  31 3.34  32 3.38
  66  0.402  0.686  0.740-  17 3.02   9 3.04   7 3.06
  67  0.834  0.858  0.707-   4 2.99  32 3.03  60 3.27  24 3.29  14 3.30  53 3.52
  68  0.109  0.289  0.462-  28 2.75  25 3.08  12 3.19
  69  0.729  0.073  0.479-  10 2.92  32 3.12  21 3.20  28 3.49
  70  0.535  0.483  0.478-   3 2.69   9 2.82  21 3.09  29 3.34  42 3.57
  71  0.299  0.840  0.490-  22 2.86  26 2.92   1 3.20  57 3.61
  72  0.921  0.679  0.485-   1 2.71  12 2.85  18 2.87  42 3.26
 
  LATTYP: Found a triclinic cell.
 ALAT       =    33.8671285666
 B/A-ratio  =     0.4011429756
 C/A-ratio  =     0.3683040636
 COS(alpha) =     0.0108349455
 COS(beta)  =     0.3646238069
 COS(gamma) =     0.8340300556
  
  Lattice vectors:
  
 A1 = (  28.2462031231,  13.9178754429, -12.4670425376)
 A2 = (  13.5855607268,   0.0000000000,   0.0000000000)
 A3 = (   0.1351486208,  -0.3745925177, -12.4670425376)


Analysis of symmetry for initial positions (statically):
=====================================================================
 Subroutine PRICEL returns:
 Original cell was already a primitive cell.
 

 Routine SETGRP: Setting up the symmetry group for a 
 triclinic supercell.


 Subroutine GETGRP returns: Found  1 space group operations
 (whereof  1 operations were pure point group operations)
 out of a pool of  2 trial point group operations.


The static configuration has the point symmetry C_1 .


Analysis of symmetry for dynamics (positions and initial velocities):
=====================================================================
 Subroutine PRICEL returns:
 Original cell was already a primitive cell.
 

 Routine SETGRP: Setting up the symmetry group for a 
 triclinic supercell.


 Subroutine GETGRP returns: Found  1 space group operations
 (whereof  1 operations were pure point group operations)
 out of a pool of  2 trial point group operations.


The dynamic configuration has the point symmetry C_1 .


 Subroutine INISYM returns: Found  1 space group operations
 (whereof  1 operations are pure point group operations),
 and found     1 'primitive' translations


----------------------------------------------------------------------------------------

                                     Primitive cell                                     

  volume of cell :    2420.7405

  direct lattice vectors                    reciprocal lattice vectors
    13.585560727  0.000000000  0.000000000     0.073607562 -0.004840744  0.000943389
     0.939933049 14.292467961  0.000000000     0.000000000  0.069966923 -0.002102270
    -0.135148621  0.374592518 12.467042538     0.000000000  0.000000000  0.080211485

  length of vectors
    13.585560727 14.323341598 12.473401073     0.073772596  0.069998499  0.080211485

  position of ions in fractional coordinates (direct lattice)
     0.083325850  0.770419808  0.533645408
     0.239116779  0.597087595  0.256664721
     0.355699921  0.416803736  0.500933560
     0.624420373  0.818772233  0.749411897
     0.485232581  0.045224901  0.020311553
     0.697882316  0.575205940  0.954043428
     0.385269054  0.637556576  0.979045348
     0.312760416  0.908814812  0.213547840
     0.492514491  0.491019492  0.698571451
     0.687326756  0.071542616  0.249389540
     0.609289493  0.274039190  0.947385875
     0.025961931  0.502078752  0.460595204
     0.221356499  0.061234804  0.969516224
     0.022863681  0.984124370  0.760917433
     0.151830905  0.799522760  0.017209535
     0.016231664  0.443414757  0.954500633
     0.203032897  0.603937004  0.755139799
     0.913803132  0.682490797  0.254709165
     0.808311283  0.397601121  0.757539727
     0.937834833  0.188342947  0.981451693
     0.624403505  0.278761668  0.488418162
     0.436406734  0.980408798  0.519618825
     0.632335862  0.780345224  0.300702431
     0.773136466  0.832622315  0.960436283
     0.060819520  0.296766150  0.702468125
     0.193395321  0.023723901  0.464694011
     0.364380685  0.183852853  0.288684344
     0.930417588  0.211393117  0.484207861
     0.494248408  0.485727454  0.213047320
     0.839305083  0.381708120  0.240551838
     0.383766458  0.222672895  0.759905164
     0.707975543  0.039372939  0.726257248
     0.996864366  0.982127026  0.992319405
     0.401021605  0.221400824  0.982069321
     0.200457075  0.591483125  0.994571142
     0.819928988  0.391354522  0.980713747
     0.591943168  0.750308361  0.969965408
     0.507351739  0.001524686  0.271264014
     0.323913650  0.398515971  0.253697699
     0.139133496  0.777030591  0.243238121
     0.940771501  0.209381732  0.237613692
     0.734297584  0.598172138  0.360241812
     0.191974829  0.062208945  0.221148680
     0.014270057  0.462002100  0.235161626
     0.564468786  0.254582613  0.252504152
     0.410499436  0.677572256  0.206865421
     0.803874971  0.894075086  0.234282509
     0.126419540  0.265684381  0.936789938
     0.688233499  0.064189108  0.962136767
     0.511542385  0.455918417  0.974874351
     0.322862090  0.886864612  0.996058204
     0.890001804  0.659755148  0.999254364
     0.987810021  0.957952834  0.515466277
     0.428211790  0.221495441  0.508241628
     0.212433718  0.596842801  0.487044941
     0.837510538  0.395978654  0.479795427
     0.562909209  0.808786833  0.529215328
     0.485241964  0.980615115  0.759731907
     0.250483531  0.395984039  0.726738517
     0.052273175  0.751244319  0.746583640
     0.892881162  0.164050369  0.747973705
     0.689586320  0.565550384  0.726654295
     0.200531198  0.094864573  0.721613805
     0.991132666  0.513185130  0.732176855
     0.619706105  0.265743861  0.723250921
     0.401742191  0.686457105  0.739827427
     0.834234828  0.858295288  0.707280814
     0.109214108  0.288635341  0.462178579
     0.729028719  0.072549015  0.479362285
     0.535126739  0.482983299  0.478057244
     0.298819916  0.840121028  0.489857958
     0.921387300  0.678924969  0.484704370

  ion indices of the primitive-cell ions
   primitive index   ion index
                 1           1
                 2           2
                 3           3
                 4           4
                 5           5
                 6           6
                 7           7
                 8           8
                 9           9
                10          10
                11          11
                12          12
                13          13
                14          14
                15          15
                16          16
                17          17
                18          18
                19          19
                20          20
                21          21
                22          22
                23          23
                24          24
                25          25
                26          26
                27          27
                28          28
                29          29
                30          30
                31          31
                32          32
                33          33
                34          34
                35          35
                36          36
                37          37
                38          38
                39          39
                40          40
                41          41
                42          42
                43          43
                44          44
                45          45
                46          46
                47          47
                48          48
                49          49
                50          50
                51          51
                52          52
                53          53
                54          54
                55          55
                56          56
                57          57
                58          58
                59          59
                60          60
                61          61
                62          62
                63          63
                64          64
                65          65
                66          66
                67          67
                68          68
                69          69
                70          70
                71          71
                72          72

----------------------------------------------------------------------------------------

 
 

Automatic generation of k-mesh.
 generate k-points for:    2    2    2
Space group operators:
 irot       det(A)        alpha          n_x          n_y          n_z        tau_x        tau_y        tau_z
    1     1.000000     0.000000     1.000000     0.000000     0.000000     0.000000     0.000000     0.000000
 
 Subroutine IBZKPT returns following result:
 ===========================================
 
 Found      4 irreducible k-points:
 
 Following reciprocal coordinates:
            Coordinates               Weight
  0.250000  0.250000  0.250000      2.000000
 -0.250000  0.250000  0.250000      2.000000
  0.250000 -0.250000  0.250000      2.000000
 -0.250000 -0.250000  0.250000      2.000000
 
 Following cartesian coordinates:
            Coordinates               Weight
  0.018402  0.016282  0.019763      2.000000
 -0.018402  0.018702  0.019291      2.000000
  0.018402 -0.018702  0.020814      2.000000
 -0.018402 -0.016282  0.020343      2.000000
 


--------------------------------------------------------------------------------------------------------




 Dimension of arrays:
   k-points           NKPTS =      4   k-points in BZ     NKDIM =      4   number of bands    NBANDS=    232
   number of dos      NEDOS =    301   number of ions     NIONS =     72
   non local maximal  LDIM  =      5   non local SUM 2l+1 LMDIM =     13
   total plane-waves  NPLWV = 358400
   max r-space proj   IRMAX =   3352   max aug-charges    IRDMAX=   8810
   dimension x,y,z NGX =    70 NGY =   80 NGZ =   64
   dimension x,y,z NGXF=   140 NGYF=  160 NGZF=  128
   support grid    NGXF=   140 NGYF=  160 NGZF=  128
   ions per type =              16  16  40
   NGX,Y,Z   is equivalent  to a cutoff of   8.57,  9.29,  8.53 a.u.
   NGXF,Y,Z  is equivalent  to a cutoff of  17.13, 18.57, 17.06 a.u.

 SYSTEM =  unknown system                          
 POSCAR =  Ge Sb Te                                

 Startparameter for this run:
   NWRITE =      2    write-flag & timer
   PREC   = accura    normal or accurate (medium, high low for compatibility)
   ISTART =      0    job   : 0-new  1-cont  2-samecut
   ICHARG =      2    charge: 1-file 2-atom 10-const
   ISPIN  =      1    spin polarized calculation?
   LNONCOLLINEAR =      F non collinear calculations
   LSORBIT =      F    spin-orbit coupling
   INIWAV =      1    electr: 0-lowe 1-rand  2-diag
   LASPH  =      F    aspherical Exc in radial PAW
   METAGGA=      F    non-selfconsistent MetaGGA calc.

 Electronic Relaxation 1
   ENCUT  =  250.0 eV  18.37 Ry    4.29 a.u.  17.51 18.47 16.08*2*pi/ulx,y,z
   ENINI  =  250.0     initial cutoff
   ENAUG  =  385.8 eV  augmentation charge cutoff
   NELM   =     60;   NELMIN=  2; NELMDL= -5     # of ELM steps 
   EDIFF  = 0.1E-05   stopping-criterion for ELM
   LREAL  =      T    real-space projection
   NLSPLINE    = F    spline interpolate recip. space projectors
   LCOMPAT=      F    compatible to vasp.4.4
   GGA_COMPAT  = T    GGA compatible to vasp.4.4-vasp.4.6
   LMAXPAW     = -100 max onsite density
   LMAXMIX     =    2 max onsite mixed and CHGCAR
   VOSKOWN=      0    Vosko Wilk Nusair interpolation
   ROPT   =   -0.00025  -0.00025  -0.00025
 Ionic relaxation
   EDIFFG = 0.1E-04   stopping-criterion for IOM
   NSW    =      0    number of steps for IOM
   NBLOCK =      1;   KBLOCK =      1    inner block; outer block 
   IBRION =     -1    ionic relax: 0-MD 1-quasi-New 2-CG
   NFREE  =      0    steps in history (QN), initial steepest desc. (CG)
   ISIF   =      2    stress and relaxation
   IWAVPR =     10    prediction:  0-non 1-charg 2-wave 3-comb
   ISYM   =      2    0-nonsym 1-usesym 2-fastsym
   LCORR  =      T    Harris-Foulkes like correction to forces

   POTIM  = 0.5000    time-step for ionic-motion
   TEIN   =    0.0    initial temperature
   TEBEG  =    0.0;   TEEND  =   0.0 temperature during run
   SMASS  =  -3.00    Nose mass-parameter (am)
   estimated Nose-frequenzy (Omega)   =  0.10E-29 period in steps = 0.13E+47 mass=  -0.422E-26a.u.
   SCALEE = 1.0000    scale energy and forces
   NPACO  =    256;   APACO  = 16.0  distance and # of slots for P.C.
   PSTRESS=    0.0 pullay stress

  Mass of Ions in am
   POMASS =  72.61121.75127.60
  Ionic Valenz
   ZVAL   =   4.00  5.00  6.00
  Atomic Wigner-Seitz radii
   RWIGS  =  -1.00 -1.00 -1.00
  virtual crystal weights 
   VCA    =   1.00  1.00  1.00
   NELECT =     384.0000    total number of electrons
   NUPDOWN=      -1.0000    fix difference up-down

 DOS related values:
   EMIN   =  10.00;   EMAX   =-10.00  energy-range for DOS
   EFERMI =   0.00
   ISMEAR =     0;   SIGMA  =   0.05  broadening in eV -4-tet -1-fermi 0-gaus

 Electronic relaxation 2 (details)
   IALGO  =     68    algorithm
   LDIAG  =      T    sub-space diagonalisation (order eigenvalues)
   LSUBROT=      F    optimize rotation matrix (better conditioning)
   TURBO    =      0    0=normal 1=particle mesh
   IRESTART =      0    0=no restart 2=restart with 2 vectors
   NREBOOT  =      0    no. of reboots
   NMIN     =      0    reboot dimension
   EREF     =   0.00    reference energy to select bands
   IMIX   =      4    mixing-type and parameters
     AMIX     =   0.40;   BMIX     =  1.00
     AMIX_MAG =   1.60;   BMIX_MAG =  1.00
     AMIN     =   0.10
     WC   =   100.;   INIMIX=   1;  MIXPRE=   1;  MAXMIX= -45

 Intra band minimization:
   WEIMIN = 0.0000     energy-eigenvalue tresh-hold
   EBREAK =  0.11E-08  absolut break condition
   DEPER  =   0.30     relativ break condition  

   TIME   =   0.40     timestep for ELM

  volume/ion in A,a.u.               =      33.62       226.89
  Fermi-wavevector in a.u.,A,eV,Ry     =   0.886208  1.674691 10.685542  0.785365
  Thomas-Fermi vector in A             =   2.007344
 
 Write flags
   LWAVE        =      F    write WAVECAR
   LDOWNSAMPLE  =      F    k-point downsampling of WAVECAR
   LCHARG       =      F    write CHGCAR
   LVTOT        =      F    write LOCPOT, total local potential
   LVHAR        =      F    write LOCPOT, Hartree potential only
   LELF         =      F    write electronic localiz. function (ELF)
   LORBIT       =      0    0 simple, 1 ext, 2 COOP (PROOUT), +10 PAW based schemes


 Dipole corrections
   LMONO  =      F    monopole corrections only (constant potential shift)
   LDIPOL =      F    correct potential (dipole corrections)
   IDIPOL =      0    1-x, 2-y, 3-z, 4-all directions 
   EPSILON=  1.0000000 bulk dielectric constant

 Exchange correlation treatment:
   GGA     =    --    GGA type
   LEXCH   =     8    internal setting for exchange type
   VOSKOWN=      0    Vosko Wilk Nusair interpolation
   LHFCALC =     F    Hartree Fock is set to
   LHFONE  =     F    Hartree Fock one center treatment
   AEXX    =    0.0000 exact exchange contribution

 Linear response parameters
   LEPSILON=     F    determine dielectric tensor
   LRPA    =     F    only Hartree local field effects (RPA)
   LNABLA  =     F    use nabla operator in PAW spheres
   LVEL    =     F    velocity operator in full k-point grid
   LINTERFAST=   F  fast interpolation
   KINTER  =     0    interpolate to denser k-point grid
   CSHIFT  =0.1000    complex shift for real part using Kramers Kronig
   OMEGAMAX=  -1.0    maximum frequency
   DEG_THRESHOLD= 0.2000000E-02 threshold for treating states as degnerate
   RTIME   =   -0.100 relaxation time in fs
  (WPLASMAI=    0.000 imaginary part of plasma frequency in eV, 0.658/RTIME)
   DFIELD  = 0.0000000 0.0000000 0.0000000 field for delta impulse in time
 
 Orbital magnetization related:
   ORBITALMAG=     F  switch on orbital magnetization
   LCHIMAG   =     F  perturbation theory with respect to B field
   DQ        =  0.001000  dq finite difference perturbation B field
   LLRAUG    =     F  two centre corrections for induced B field



--------------------------------------------------------------------------------------------------------


 Static calculation
 charge density and potential will be updated during run
 non-spin polarized calculation
 RMM-DIIS sequential band-by-band and
  variant of blocked Davidson during initial phase
 perform sub-space diagonalisation
    before iterative eigenvector-optimisation
 modified Broyden-mixing scheme, WC =      100.0
 initial mixing is a Kerker type mixing with AMIX =  0.4000 and BMIX =      1.0000
 Hartree-type preconditioning will be used
 using additional bands           40
 real space projection scheme for non local part
 use partial core corrections
 calculate Harris-corrections to forces 
   (improved forces if not selfconsistent)
 use gradient corrections 
 use of overlap-Matrix (Vanderbilt PP)
 Gauss-broadening in eV      SIGMA  =   0.05


--------------------------------------------------------------------------------------------------------


  energy-cutoff  :      250.00
  volume of cell :     2420.74
      direct lattice vectors                 reciprocal lattice vectors
    13.585560727  0.000000000  0.000000000     0.073607562 -0.004840744  0.000943389
     0.939933049 14.292467961  0.000000000     0.000000000  0.069966923 -0.002102270
    -0.135148621  0.374592518 12.467042538     0.000000000  0.000000000  0.080211485

  length of vectors
    13.585560727 14.323341598 12.473401073     0.073772596  0.069998499  0.080211485


 
 k-points in units of 2pi/SCALE and weight: read from INCAR                         
   0.01840189  0.01628154  0.01976315       0.250
  -0.01840189  0.01870192  0.01929146       0.250
   0.01840189 -0.01870192  0.02081429       0.250
  -0.01840189 -0.01628154  0.02034259       0.250
 
 k-points in reciprocal lattice and weights: read from INCAR                         
   0.25000000  0.25000000  0.25000000       0.250
  -0.25000000  0.25000000  0.25000000       0.250
   0.25000000 -0.25000000  0.25000000       0.250
  -0.25000000 -0.25000000  0.25000000       0.250
 
 position of ions in fractional coordinates (direct lattice) 
   0.08332585  0.77041981  0.53364541
   0.23911678  0.59708759  0.25666472
   0.35569992  0.41680374  0.50093356
   0.62442037  0.81877223  0.74941190
   0.48523258  0.04522490  0.02031155
   0.69788232  0.57520594  0.95404343
   0.38526905  0.63755658  0.97904535
   0.31276042  0.90881481  0.21354784
   0.49251449  0.49101949  0.69857145
   0.68732676  0.07154262  0.24938954
   0.60928949  0.27403919  0.94738587
   0.02596193  0.50207875  0.46059520
   0.22135650  0.06123480  0.96951622
   0.02286368  0.98412437  0.76091743
   0.15183090  0.79952276  0.01720953
   0.01623166  0.44341476  0.95450063
   0.20303290  0.60393700  0.75513980
   0.91380313  0.68249080  0.25470917
   0.80831128  0.39760112  0.75753973
   0.93783483  0.18834295  0.98145169
   0.62440351  0.27876167  0.48841816
   0.43640673  0.98040880  0.51961883
   0.63233586  0.78034522  0.30070243
   0.77313647  0.83262231  0.96043628
   0.06081952  0.29676615  0.70246813
   0.19339532  0.02372390  0.46469401
   0.36438068  0.18385285  0.28868434
   0.93041759  0.21139312  0.48420786
   0.49424841  0.48572745  0.21304732
   0.83930508  0.38170812  0.24055184
   0.38376646  0.22267289  0.75990516
   0.70797554  0.03937294  0.72625725
   0.99686437  0.98212703  0.99231941
   0.40102160  0.22140082  0.98206932
   0.20045707  0.59148312  0.99457114
   0.81992899  0.39135452  0.98071375
   0.59194317  0.75030836  0.96996541
   0.50735174  0.00152469  0.27126401
   0.32391365  0.39851597  0.25369770
   0.13913350  0.77703059  0.24323812
   0.94077150  0.20938173  0.23761369
   0.73429758  0.59817214  0.36024181
   0.19197483  0.06220895  0.22114868
   0.01427006  0.46200210  0.23516163
   0.56446879  0.25458261  0.25250415
   0.41049944  0.67757226  0.20686542
   0.80387497  0.89407509  0.23428251
   0.12641954  0.26568438  0.93678994
   0.68823350  0.06418911  0.96213677
   0.51154239  0.45591842  0.97487435
   0.32286209  0.88686461  0.99605820
   0.89000180  0.65975515  0.99925436
   0.98781002  0.95795283  0.51546628
   0.42821179  0.22149544  0.50824163
   0.21243372  0.59684280  0.48704494
   0.83751054  0.39597865  0.47979543
   0.56290921  0.80878683  0.52921533
   0.48524196  0.98061511  0.75973191
   0.25048353  0.39598404  0.72673852
   0.05227317  0.75124432  0.74658364
   0.89288116  0.16405037  0.74797371
   0.68958632  0.56555038  0.72665429
   0.20053120  0.09486457  0.72161380
   0.99113267  0.51318513  0.73217686
   0.61970611  0.26574386  0.72325092
   0.40174219  0.68645711  0.73982743
   0.83423483  0.85829529  0.70728081
   0.10921411  0.28863534  0.46217858
   0.72902872  0.07254902  0.47936229
   0.53512674  0.48298330  0.47805724
   0.29881992  0.84012103  0.48985796
   0.92138730  0.67892497  0.48470437
 
 position of ions in cartesian coordinates  (Angst):
   1.78405000 11.21110000  6.65298000
   3.77507000  8.63000000  3.19985000
   5.15645000  6.14480000  6.24516000
   9.15141000 11.98300000  9.34295000
   6.63192000  0.65398400  0.25322500
   9.89284000  8.57849000 11.89410000
   5.70104000  9.47900000 12.20580000
   5.07439000 13.06920000  2.66231000
   7.05820000  7.27956000  8.70912000
   9.37126000  1.11594000  3.10915000
   8.40708000  4.27158000 11.81110000
   0.76237900  7.34848000  5.74226000
   2.93378000  1.23837000 12.08700000
   1.13279000 14.35060000  9.48639000
   2.81188000 11.43360000  0.21455200
   0.50829700  6.69504000 11.89980000
   3.22392000  8.91462000  9.41436000
  13.02160000  9.84989000  3.17547000
  11.25270000  5.96647000  9.44428000
  12.78540000  3.05953000 12.23580000
   8.67888000  4.16715000  6.08913000
   6.78012305 14.20710666  6.47811000
   9.28347000 11.26570000  3.74887000
  11.15630000 12.26000000 11.97380000
   1.01027000  4.50466000  8.75770000
   2.58688000  0.51314400  5.79336000
   5.08411000  2.73585000  3.59904000
  12.77350000  3.20271000  6.03664000
   7.14240000  7.02205000  2.65607000
  11.72870000  5.54566000  2.99897000
   5.32028000  3.46720000  9.47377000
   9.55710000  0.83478700  9.05428000
  14.33198443 14.40873448 12.37128824
   5.52348000  3.53224000 12.24350000
   3.14486138  8.82631252 12.39936074
  11.37450000  5.96079000 12.22660000
   8.61603000 11.08710000 12.09260000
   6.85743000  0.12340500  3.38186000
   4.74084000  5.79081000  3.16286000
   2.58769000 11.19680000  3.03246000
  12.94560000  3.08159000  2.96234000
  10.48940000  8.68430000  4.49115000
   2.63667000  0.97196000  2.75707000
   0.59633600  6.69124000  2.93177000
   7.87379000  3.73320000  3.14798000
   6.18578000  9.76167000  2.57900000
  11.72980000 12.86630000  2.92081000
   1.84060000  4.14820000 11.67900000
   9.28034000  1.27783000 11.99500000
   7.24637000  6.88138000 12.15380000
   5.08524000 13.04860000 12.41790000
  12.57625138  9.80384252 12.45774667
  14.25070000 13.88460000  6.42634000
   5.95700000  3.35610000  6.33627000
   3.38120000  8.71280000  6.07201000
  11.68540000  5.83924000  5.98163000
   8.33612000 11.75780000  6.59775000
   7.41132000 14.30000000  9.47161000
   3.67694000  5.93182000  9.06028000
   1.31538000 11.01680000  9.30769000
  12.18340000  2.62487000  9.32502000
   9.80179000  8.35531000  9.05923000
   2.71597000  1.62616000  8.99639000
  13.84850000  7.60895000  9.12808000
   8.57109000  4.06906000  9.01680000
   6.00313000 10.08830000  9.22346000
  12.04470000 12.53210000  8.81770000
   1.69257000  4.29844000  5.76200000
   9.90767000  1.21647000  5.97623000
   7.65936000  7.08210000  5.95996000
   4.78309000 12.19090000  6.10708000
  13.09020000  9.88508000  6.04283000
 


--------------------------------------------------------------------------------------------------------


 k-point  1 :   0.2500 0.2500 0.2500  plane waves:   21722
 k-point  2 :  -0.2500 0.2500 0.2500  plane waves:   21720
 k-point  3 :   0.2500-0.2500 0.2500  plane waves:   21721
 k-point  4 :  -0.2500-0.2500 0.2500  plane waves:   21759

 maximum and minimum number of plane-waves per node :      5455     5412

 maximum number of plane-waves:     21759
 maximum index in each direction: 
   IXMAX=   17   IYMAX=   18   IZMAX=   15
   IXMIN=  -17   IYMIN=  -18   IZMIN=  -16


 real space projection operators:
  total allocation   :      22987.76 KBytes
  max/ min on nodes  :       5935.11       5565.42


 parallel 3D FFT for wavefunctions:
    minimum data exchange during FFTs selected (reduces bandwidth)
 parallel 3D FFT for charge:
    minimum data exchange during FFTs selected (reduces bandwidth)


 total amount of memory used by VASP MPI-rank0    81748. kBytes
=======================================================================

   base      :      30000. kBytes
   nonlr-proj:       5912. kBytes
   fftplans  :       8977. kBytes
   grid      :      15644. kBytes
   one-center:        146. kBytes
   wavefun   :      21069. kBytes
 
     INWAV:  cpu time    0.0001: real time    0.0001
 Broyden mixing: mesh for mixing (old mesh)
   NGX = 35   NGY = 37   NGZ = 33
  (NGX  =140   NGY  =160   NGZ  =128)
  gives a total of  42735 points

 initial charge density was supplied:
 charge density of overlapping atoms calculated
 number of electron     384.0000000 magnetization 
 keeping initial charge density in first step


--------------------------------------------------------------------------------------------------------


 Maximum index for non-local projection operator          954
 Maximum index for augmentation-charges          739 (set IRDMAX)


--------------------------------------------------------------------------------------------------------


 First call to EWALD:  gamma=   0.132
 Maximum number of real-space cells 3x 3x 3
 Maximum number of reciprocal cells 3x 3x 3

    FEWALD:  cpu time    0.0100: real time    0.0100


--------------------------------------- Iteration      1(   1)  ---------------------------------------


    POTLOK:  cpu time    0.1791: real time    0.1934
    SETDIJ:  cpu time    0.0339: real time    0.0344
     EDDAV:  cpu time    3.2359: real time    3.2419
       DOS:  cpu time    0.0030: real time    0.0032
    --------------------------------------------
      LOOP:  cpu time    3.4520: real time    3.4730

 eigenvalue-minimisations  :  1856
 total energy-change (2. order) : 0.1339312E+04  (-0.8903552E+04)
 number of electron     384.0000000 magnetization 
 augmentation part      384.0000000 magnetization 

 Free energy of the ion-electron system (eV)
  ---------------------------------------------------
  alpha Z        PSCENC =       118.48961208
  Ewald energy   TEWEN  =    -12637.18073226
  -Hartree energ DENC   =     -1193.12299024
  -exchange      EXHF   =         0.00000000
  -V(xc)+E(xc)   XCENC  =     -1986.59811928
  PAW double counting   =     12338.96171541    -9704.48084717
  entropy T*S    EENTRO =        -0.03067394
  eigenvalues    EBANDS =      1393.41589430
  atomic energy  EATOM  =     13009.85829969
  Solvation  Ediel_sol  =         0.00000000
  ---------------------------------------------------
  free energy    TOTEN  =      1339.31215859 eV

  energy without entropy =     1339.34283252  energy(sigma->0) =     1339.32749555


--------------------------------------------------------------------------------------------------------




--------------------------------------- Iteration      1(   2)  ---------------------------------------


     EDDAV:  cpu time    3.7023: real time    3.7065
       DOS:  cpu time    0.0018: real time    0.0018
    --------------------------------------------
      LOOP:  cpu time    3.7041: real time    3.7082

 eigenvalue-minimisations  :  2192
 total energy-change (2. order) :-0.1450242E+04  (-0.1397337E+04)
 number of electron     384.0000000 magnetization 
 augmentation part      384.0000000 magnetization 

 Free energy of the ion-electron system (eV)
  ---------------------------------------------------
  alpha Z        PSCENC =       118.48961208
  Ewald energy   TEWEN  =    -12637.18073226
  -Hartree energ DENC   =     -1193.12299024
  -exchange      EXHF   =         0.00000000
  -V(xc)+E(xc)   XCENC  =     -1986.59811928
  PAW double counting   =     12338.96171541    -9704.48084717
  entropy T*S    EENTRO =        -0.02134866
  eigenvalues    EBANDS =       -56.83513714
  atomic energy  EATOM  =     13009.85829969
  Solvation  Ediel_sol  =         0.00000000
  ---------------------------------------------------
  free energy    TOTEN  =      -110.92954757 eV

  energy without entropy =     -110.90819892  energy(sigma->0) =     -110.91887324


--------------------------------------------------------------------------------------------------------




--------------------------------------- Iteration      1(   3)  ---------------------------------------


     EDDAV:  cpu time    3.6594: real time    3.6907
       DOS:  cpu time    0.0014: real time    0.0014
    --------------------------------------------
      LOOP:  cpu time    3.6608: real time    3.6921

 eigenvalue-minimisations  :  2200
 total energy-change (2. order) :-0.1449707E+03  (-0.1404932E+03)
 number of electron     384.0000000 magnetization 
 augmentation part      384.0000000 magnetization 

 Free energy of the ion-electron system (eV)
  ---------------------------------------------------
  alpha Z        PSCENC =       118.48961208
  Ewald energy   TEWEN  =    -12637.18073226
  -Hartree energ DENC   =     -1193.12299024
  -exchange      EXHF   =         0.00000000
  -V(xc)+E(xc)   XCENC  =     -1986.59811928
  PAW double counting   =     12338.96171541    -9704.48084717
  entropy T*S    EENTRO =        -0.00000000
  eigenvalues    EBANDS =      -201.82718539
  atomic energy  EATOM  =     13009.85829969
  Solvation  Ediel_sol  =         0.00000000
  ---------------------------------------------------
  free energy    TOTEN  =      -255.90024717 eV

  energy without entropy =     -255.90024717  energy(sigma->0) =     -255.90024717


--------------------------------------------------------------------------------------------------------




--------------------------------------- Iteration      1(   4)  ---------------------------------------


     EDDAV:  cpu time    4.1113: real time    4.1452
       DOS:  cpu time    0.0016: real time    0.0017
    --------------------------------------------
      LOOP:  cpu time    4.1129: real time    4.1470

 eigenvalue-minimisations  :  2528
 total energy-change (2. order) :-0.6680897E+01  (-0.6609730E+01)
 number of electron     384.0000000 magnetization 
 augmentation part      384.0000000 magnetization 

 Free energy of the ion-electron system (eV)
  ---------------------------------------------------
  alpha Z        PSCENC =       118.48961208
  Ewald energy   TEWEN  =    -12637.18073226
  -Hartree energ DENC   =     -1193.12299024
  -exchange      EXHF   =         0.00000000
  -V(xc)+E(xc)   XCENC  =     -1986.59811928
  PAW double counting   =     12338.96171541    -9704.48084717
  entropy T*S    EENTRO =        -0.00000000
  eigenvalues    EBANDS =      -208.50808255
  atomic energy  EATOM  =     13009.85829969
  Solvation  Ediel_sol  =         0.00000000
  ---------------------------------------------------
  free energy    TOTEN  =      -262.58114432 eV

  energy without entropy =     -262.58114432  energy(sigma->0) =     -262.58114432


--------------------------------------------------------------------------------------------------------




--------------------------------------- Iteration      1(   5)  ---------------------------------------


     EDDAV:  cpu time    3.9621: real time    3.9952
       DOS:  cpu time    0.0014: real time    0.0014
    CHARGE:  cpu time    0.2284: real time    0.2303
    MIXING:  cpu time    0.0182: real time    0.0185
    --------------------------------------------
      LOOP:  cpu time    4.2100: real time    4.2454

 eigenvalue-minimisations  :  2392
 total energy-change (2. order) :-0.1793139E+00  (-0.1785022E+00)
 number of electron     383.9999991 magnetization 
 augmentation part      -72.4774929 magnetization 

 Broyden mixing:
  rms(total) = 0.31682E+01    rms(broyden)= 0.31681E+01
  rms(prec ) = 0.32699E+01
  weight for this iteration     100.00

 Free energy of the ion-electron system (eV)
  ---------------------------------------------------
  alpha Z        PSCENC =       118.48961208
  Ewald energy   TEWEN  =    -12637.18073226
  -Hartree energ DENC   =     -1193.12299024
  -exchange      EXHF   =         0.00000000
  -V(xc)+E(xc)   XCENC  =     -1986.59811928
  PAW double counting   =     12338.96171541    -9704.48084717
  entropy T*S    EENTRO =        -0.00000000
  eigenvalues    EBANDS =      -208.68739640
  atomic energy  EATOM  =     13009.85829969
  Solvation  Ediel_sol  =         0.00000000
  ---------------------------------------------------
  free energy    TOTEN  =      -262.76045818 eV

  energy without entropy =     -262.76045818  energy(sigma->0) =     -262.76045818


--------------------------------------------------------------------------------------------------------




--------------------------------------- Iteration      1(   6)  ---------------------------------------


    POTLOK:  cpu time    0.1767: real time    0.2023
    SETDIJ:  cpu time    0.0316: real time    0.0316
    EDDIAG:  cpu time    0.4827: real time    0.4835
  RMM-DIIS:  cpu time    2.0125: real time    2.0154
    ORTHCH:  cpu time    0.0622: real time    0.0623
       DOS:  cpu time    0.0020: real time    0.0020
    CHARGE:  cpu time    0.2213: real time    0.2213
    MIXING:  cpu time    0.0159: real time    0.0159
    --------------------------------------------
      LOOP:  cpu time    3.0049: real time    3.0343

 eigenvalue-minimisations  :  1954
 total energy-change (2. order) : 0.2620824E+01  (-0.7960586E+00)
 number of electron     383.9999991 magnetization 
 augmentation part      -72.1227082 magnetization 

 Broyden mixing:
  rms(total) = 0.19383E+01    rms(broyden)= 0.19383E+01
  rms(prec ) = 0.19574E+01
  weight for this iteration     100.00

 eigenvalues of (default mixing * dielectric matrix)
  average eigenvalue GAMMA=   2.4279
  2.4279

 Free energy of the ion-electron system (eV)
  ---------------------------------------------------
  alpha Z        PSCENC =       118.48961208
  Ewald energy   TEWEN  =    -12637.18073226
  -Hartree energ DENC   =     -1207.81239752
  -exchange      EXHF   =         0.00000000
  -V(xc)+E(xc)   XCENC  =     -1983.93384522
  PAW double counting   =     16365.95168363   -13733.23918089
  entropy T*S    EENTRO =        -0.00158994
  eigenvalues    EBANDS =      -192.27148369
  atomic energy  EATOM  =     13009.85829969
  Solvation  Ediel_sol  =         0.00000000
  ---------------------------------------------------
  free energy    TOTEN  =      -260.13963412 eV

  energy without entropy =     -260.13804418  energy(sigma->0) =     -260.13883915


--------------------------------------------------------------------------------------------------------




--------------------------------------- Iteration      1(   7)  ---------------------------------------


    POTLOK:  cpu time    0.1546: real time    0.1799
    SETDIJ:  cpu time    0.0311: real time    0.0311
    EDDIAG:  cpu time    0.4838: real time    0.4848
  RMM-DIIS:  cpu time    2.1666: real time    2.1689
    ORTHCH:  cpu time    0.0573: real time    0.0573
       DOS:  cpu time    0.0016: real time    0.0016
    CHARGE:  cpu time    0.2214: real time    0.2223
    MIXING:  cpu time    0.0143: real time    0.0144
    --------------------------------------------
      LOOP:  cpu time    3.1306: real time    3.1603

 eigenvalue-minimisations  :  2143
 total energy-change (2. order) : 0.5449302E-03  (-0.2394026E+00)
 number of electron     383.9999991 magnetization 
 augmentation part      -72.0820532 magnetization 

 Broyden mixing:
  rms(total) = 0.37615E+00    rms(broyden)= 0.37615E+00
  rms(prec ) = 0.39784E+00
  weight for this iteration     100.00

 eigenvalues of (default mixing * dielectric matrix)
  average eigenvalue GAMMA=   1.7887
  1.0478  2.5296

 Free energy of the ion-electron system (eV)
  ---------------------------------------------------
  alpha Z        PSCENC =       118.48961208
  Ewald energy   TEWEN  =    -12637.18073226
  -Hartree energ DENC   =     -1219.04060903
  -exchange      EXHF   =         0.00000000
  -V(xc)+E(xc)   XCENC  =     -1981.14941545
  PAW double counting   =     22724.06300179   -20092.81906411
  entropy T*S    EENTRO =        -0.00194105
  eigenvalues    EBANDS =      -182.35824085
  atomic energy  EATOM  =     13009.85829969
  Solvation  Ediel_sol  =         0.00000000
  ---------------------------------------------------
  free energy    TOTEN  =      -260.13908919 eV

  energy without entropy =     -260.13714815  energy(sigma->0) =     -260.13811867


--------------------------------------------------------------------------------------------------------




--------------------------------------- Iteration      1(   8)  ---------------------------------------


    POTLOK:  cpu time    0.1796: real time    0.1798
    SETDIJ:  cpu time    0.0315: real time    0.0315
    EDDIAG:  cpu time    0.4899: real time    0.4900
  RMM-DIIS:  cpu time    2.3071: real time    2.3103
    ORTHCH:  cpu time    0.0563: real time    0.0563
       DOS:  cpu time    0.0021: real time    0.0021
    CHARGE:  cpu time    0.2216: real time    0.2216
    MIXING:  cpu time    0.0140: real time    0.0140
    --------------------------------------------
      LOOP:  cpu time    3.3021: real time    3.3055

 eigenvalue-minimisations  :  2280
 total energy-change (2. order) : 0.4638808E-01  (-0.2612838E-01)
 number of electron     383.9999991 magnetization 
 augmentation part      -72.1261063 magnetization 

 Broyden mixing:
  rms(total) = 0.91365E-01    rms(broyden)= 0.91364E-01
  rms(prec ) = 0.10100E+00
  weight for this iteration     100.00

 eigenvalues of (default mixing * dielectric matrix)
  average eigenvalue GAMMA=   1.5856
  2.5831  0.9318  1.2418

 Free energy of the ion-electron system (eV)
  ---------------------------------------------------
  alpha Z        PSCENC =       118.48961208
  Ewald energy   TEWEN  =    -12637.18073226
  -Hartree energ DENC   =     -1220.09032741
  -exchange      EXHF   =         0.00000000
  -V(xc)+E(xc)   XCENC  =     -1980.62753359
  PAW double counting   =     24174.35390928   -21543.27209434
  entropy T*S    EENTRO =        -0.00232409
  eigenvalues    EBANDS =      -181.62151047
  atomic energy  EATOM  =     13009.85829969
  Solvation  Ediel_sol  =         0.00000000
  ---------------------------------------------------
  free energy    TOTEN  =      -260.09270111 eV

  energy without entropy =     -260.09037702  energy(sigma->0) =     -260.09153907


--------------------------------------------------------------------------------------------------------




--------------------------------------- Iteration      1(   9)  ---------------------------------------


    POTLOK:  cpu time    0.1792: real time    0.1804
    SETDIJ:  cpu time    0.0314: real time    0.0314
    EDDIAG:  cpu time    0.4925: real time    0.4925
  RMM-DIIS:  cpu time    2.2391: real time    2.2421
    ORTHCH:  cpu time    0.0563: real time    0.0563
       DOS:  cpu time    0.0015: real time    0.0015
    CHARGE:  cpu time    0.2217: real time    0.2217
    MIXING:  cpu time    0.0142: real time    0.0142
    --------------------------------------------
      LOOP:  cpu time    3.2358: real time    3.2401

 eigenvalue-minimisations  :  2196
 total energy-change (2. order) : 0.7072594E-02  (-0.4196307E-02)
 number of electron     383.9999991 magnetization 
 augmentation part      -72.1563427 magnetization 

 Broyden mixing:
  rms(total) = 0.47274E-01    rms(broyden)= 0.47274E-01
  rms(prec ) = 0.48739E-01
  weight for this iteration     100.00

 eigenvalues of (default mixing * dielectric matrix)
  average eigenvalue GAMMA=   1.6841
  2.6175  1.8584  0.8823  1.3783

 Free energy of the ion-electron system (eV)
  ---------------------------------------------------
  alpha Z        PSCENC =       118.48961208
  Ewald energy   TEWEN  =    -12637.18073226
  -Hartree energ DENC   =     -1220.00789351
  -exchange      EXHF   =         0.00000000
  -V(xc)+E(xc)   XCENC  =     -1980.58262359
  PAW double counting   =     24305.44533274   -21674.33048137
  entropy T*S    EENTRO =        -0.00147225
  eigenvalues    EBANDS =      -181.77567004
  atomic energy  EATOM  =     13009.85829969
  Solvation  Ediel_sol  =         0.00000000
  ---------------------------------------------------
  free energy    TOTEN  =      -260.08562852 eV

  energy without entropy =     -260.08415627  energy(sigma->0) =     -260.08489239


--------------------------------------------------------------------------------------------------------




--------------------------------------- Iteration      1(  10)  ---------------------------------------


    POTLOK:  cpu time    0.1544: real time    0.1801
    SETDIJ:  cpu time    0.0316: real time    0.0316
    EDDIAG:  cpu time    0.4834: real time    0.4844
  RMM-DIIS:  cpu time    2.3314: real time    2.3335
    ORTHCH:  cpu time    0.0561: real time    0.0561
       DOS:  cpu time    0.0018: real time    0.0018
    CHARGE:  cpu time    0.2227: real time    0.2236
    MIXING:  cpu time    0.0143: real time    0.0143
    --------------------------------------------
      LOOP:  cpu time    3.2957: real time    3.3255

 eigenvalue-minimisations  :  2297
 total energy-change (2. order) :-0.1087265E-02  (-0.8808518E-03)
 number of electron     383.9999991 magnetization 
 augmentation part      -72.1574325 magnetization 

 Broyden mixing:
  rms(total) = 0.16098E-01    rms(broyden)= 0.16098E-01
  rms(prec ) = 0.17123E-01
  weight for this iteration     100.00

 eigenvalues of (default mixing * dielectric matrix)
  average eigenvalue GAMMA=   1.6619
  2.6442  2.3311  0.8615  1.2365  1.2365

 Free energy of the ion-electron system (eV)
  ---------------------------------------------------
  alpha Z        PSCENC =       118.48961208
  Ewald energy   TEWEN  =    -12637.18073226
  -Hartree energ DENC   =     -1220.53030764
  -exchange      EXHF   =         0.00000000
  -V(xc)+E(xc)   XCENC  =     -1980.53226516
  PAW double counting   =     24301.78855558   -21670.66324305
  entropy T*S    EENTRO =        -0.00156558
  eigenvalues    EBANDS =      -181.31506944
  atomic energy  EATOM  =     13009.85829969
  Solvation  Ediel_sol  =         0.00000000
  ---------------------------------------------------
  free energy    TOTEN  =      -260.08671578 eV

  energy without entropy =     -260.08515021  energy(sigma->0) =     -260.08593299


--------------------------------------------------------------------------------------------------------




--------------------------------------- Iteration      1(  11)  ---------------------------------------


    POTLOK:  cpu time    0.1550: real time    0.1801
    SETDIJ:  cpu time    0.0313: real time    0.0313
    EDDIAG:  cpu time    0.4844: real time    0.4845
  RMM-DIIS:  cpu time    2.2860: real time    2.2888
    ORTHCH:  cpu time    0.0555: real time    0.0555
       DOS:  cpu time    0.0019: real time    0.0019
    CHARGE:  cpu time    0.2200: real time    0.2200
    MIXING:  cpu time    0.0141: real time    0.0141
    --------------------------------------------
      LOOP:  cpu time    3.2482: real time    3.2762

 eigenvalue-minimisations  :  2248
 total energy-change (2. order) :-0.2436611E-03  (-0.1109920E-03)
 number of electron     383.9999991 magnetization 
 augmentation part      -72.1583040 magnetization 

 Broyden mixing:
  rms(total) = 0.46223E-02    rms(broyden)= 0.46222E-02
  rms(prec ) = 0.50708E-02
  weight for this iteration     100.00

 eigenvalues of (default mixing * dielectric matrix)
  average eigenvalue GAMMA=   1.6104
  2.6333  2.3929  1.5162  0.8386  1.1405  1.1405

 Free energy of the ion-electron system (eV)
  ---------------------------------------------------
  alpha Z        PSCENC =       118.48961208
  Ewald energy   TEWEN  =    -12637.18073226
  -Hartree energ DENC   =     -1220.82073892
  -exchange      EXHF   =         0.00000000
  -V(xc)+E(xc)   XCENC  =     -1980.51509300
  PAW double counting   =     24285.64324507   -21654.50841925
  entropy T*S    EENTRO =        -0.00144524
  eigenvalues    EBANDS =      -181.05168760
  atomic energy  EATOM  =     13009.85829969
  Solvation  Ediel_sol  =         0.00000000
  ---------------------------------------------------
  free energy    TOTEN  =      -260.08695945 eV

  energy without entropy =     -260.08551421  energy(sigma->0) =     -260.08623683


--------------------------------------------------------------------------------------------------------




--------------------------------------- Iteration      1(  12)  ---------------------------------------


    POTLOK:  cpu time    0.1792: real time    0.1804
    SETDIJ:  cpu time    0.0305: real time    0.0305
    EDDIAG:  cpu time    0.4836: real time    0.4837
  RMM-DIIS:  cpu time    2.3958: real time    2.3992
    ORTHCH:  cpu time    0.0563: real time    0.0563
       DOS:  cpu time    0.0018: real time    0.0018
    CHARGE:  cpu time    0.2210: real time    0.2210
    MIXING:  cpu time    0.0148: real time    0.0149
    --------------------------------------------
      LOOP:  cpu time    3.3831: real time    3.3877

 eigenvalue-minimisations  :  2386
 total energy-change (2. order) :-0.5059270E-04  (-0.2521020E-04)
 number of electron     383.9999991 magnetization 
 augmentation part      -72.1575417 magnetization 

 Broyden mixing:
  rms(total) = 0.23649E-02    rms(broyden)= 0.23649E-02
  rms(prec ) = 0.25809E-02
  weight for this iteration     100.00

 eigenvalues of (default mixing * dielectric matrix)
  average eigenvalue GAMMA=   1.6930
  2.6700  2.6700  2.1833  1.3188  0.8353  1.0869  1.0869

 Free energy of the ion-electron system (eV)
  ---------------------------------------------------
  alpha Z        PSCENC =       118.48961208
  Ewald energy   TEWEN  =    -12637.18073226
  -Hartree energ DENC   =     -1220.94392650
  -exchange      EXHF   =         0.00000000
  -V(xc)+E(xc)   XCENC  =     -1980.50752532
  PAW double counting   =     24281.20785678   -21650.07071061
  entropy T*S    EENTRO =        -0.00146716
  eigenvalues    EBANDS =      -180.93841673
  atomic energy  EATOM  =     13009.85829969
  Solvation  Ediel_sol  =         0.00000000
  ---------------------------------------------------
  free energy    TOTEN  =      -260.08701004 eV

  energy without entropy =     -260.08554287  energy(sigma->0) =     -260.08627646


--------------------------------------------------------------------------------------------------------




--------------------------------------- Iteration      1(  13)  ---------------------------------------


    POTLOK:  cpu time    0.1551: real time    0.1798
    SETDIJ:  cpu time    0.0309: real time    0.0309
    EDDIAG:  cpu time    0.4854: real time    0.4864
  RMM-DIIS:  cpu time    2.2104: real time    2.2124
    ORTHCH:  cpu time    0.0559: real time    0.0559
       DOS:  cpu time    0.0020: real time    0.0020
    CHARGE:  cpu time    0.2192: real time    0.2202
    MIXING:  cpu time    0.0148: real time    0.0148
    --------------------------------------------
      LOOP:  cpu time    3.1736: real time    3.2024

 eigenvalue-minimisations  :  2183
 total energy-change (2. order) :-0.1875482E-04  (-0.5154348E-05)
 number of electron     383.9999991 magnetization 
 augmentation part      -72.1573148 magnetization 

 Broyden mixing:
  rms(total) = 0.65748E-03    rms(broyden)= 0.65746E-03
  rms(prec ) = 0.80188E-03
  weight for this iteration     100.00

 eigenvalues of (default mixing * dielectric matrix)
  average eigenvalue GAMMA=   1.6378
  2.6535  2.6535  2.2718  1.3929  0.8343  1.2099  1.0431  1.0431

 Free energy of the ion-electron system (eV)
  ---------------------------------------------------
  alpha Z        PSCENC =       118.48961208
  Ewald energy   TEWEN  =    -12637.18073226
  -Hartree energ DENC   =     -1221.02701822
  -exchange      EXHF   =         0.00000000
  -V(xc)+E(xc)   XCENC  =     -1980.50234527
  PAW double counting   =     24279.45713324   -21648.31709715
  entropy T*S    EENTRO =        -0.00146030
  eigenvalues    EBANDS =      -180.86342060
  atomic energy  EATOM  =     13009.85829969
  Solvation  Ediel_sol  =         0.00000000
  ---------------------------------------------------
  free energy    TOTEN  =      -260.08702879 eV

  energy without entropy =     -260.08556850  energy(sigma->0) =     -260.08629864


--------------------------------------------------------------------------------------------------------




--------------------------------------- Iteration      1(  14)  ---------------------------------------


    POTLOK:  cpu time    0.1550: real time    0.1809
    SETDIJ:  cpu time    0.0312: real time    0.0312
    EDDIAG:  cpu time    0.4894: real time    0.4894
  RMM-DIIS:  cpu time    2.0738: real time    2.0771
    ORTHCH:  cpu time    0.0563: real time    0.0564
       DOS:  cpu time    0.0022: real time    0.0022
    CHARGE:  cpu time    0.2221: real time    0.2221
    MIXING:  cpu time    0.0150: real time    0.0150
    --------------------------------------------
      LOOP:  cpu time    3.0451: real time    3.0742

 eigenvalue-minimisations  :  2012
 total energy-change (2. order) :-0.3637570E-05  (-0.1263679E-05)
 number of electron     383.9999991 magnetization 
 augmentation part      -72.1571712 magnetization 

 Broyden mixing:
  rms(total) = 0.32279E-03    rms(broyden)= 0.32279E-03
  rms(prec ) = 0.39556E-03
  weight for this iteration     100.00

 eigenvalues of (default mixing * dielectric matrix)
  average eigenvalue GAMMA=   1.6638
  2.8053  2.8053  2.3589  1.6874  1.2544  1.2544  0.8253  0.9916  0.9916

 Free energy of the ion-electron system (eV)
  ---------------------------------------------------
  alpha Z        PSCENC =       118.48961208
  Ewald energy   TEWEN  =    -12637.18073226
  -Hartree energ DENC   =     -1221.04819922
  -exchange      EXHF   =         0.00000000
  -V(xc)+E(xc)   XCENC  =     -1980.50031012
  PAW double counting   =     24279.75552815   -21648.61489966
  entropy T*S    EENTRO =        -0.00146491
  eigenvalues    EBANDS =      -180.84486618
  atomic energy  EATOM  =     13009.85829969
  Solvation  Ediel_sol  =         0.00000000
  ---------------------------------------------------
  free energy    TOTEN  =      -260.08703243 eV

  energy without entropy =     -260.08556752  energy(sigma->0) =     -260.08629998


--------------------------------------------------------------------------------------------------------




--------------------------------------- Iteration      1(  15)  ---------------------------------------


    POTLOK:  cpu time    0.1537: real time    0.1788
    SETDIJ:  cpu time    0.0321: real time    0.0321
    EDDIAG:  cpu time    0.4809: real time    0.4819
  RMM-DIIS:  cpu time    1.5542: real time    1.5562
    ORTHCH:  cpu time    0.0557: real time    0.0557
       DOS:  cpu time    0.0016: real time    0.0016
    --------------------------------------------
      LOOP:  cpu time    2.2783: real time    2.3063

 eigenvalue-minimisations  :  1449
 total energy-change (2. order) :-0.9414016E-06  (-0.2215688E-06)
 number of electron     383.9999991 magnetization 
 augmentation part      -72.1571712 magnetization 

 Free energy of the ion-electron system (eV)
  ---------------------------------------------------
  alpha Z        PSCENC =       118.48961208
  Ewald energy   TEWEN  =    -12637.18073226
  -Hartree energ DENC   =     -1221.06192446
  -exchange      EXHF   =         0.00000000
  -V(xc)+E(xc)   XCENC  =     -1980.49896666
  PAW double counting   =     24279.87160837   -21648.73060862
  entropy T*S    EENTRO =        -0.00146281
  eigenvalues    EBANDS =      -180.83285870
  atomic energy  EATOM  =     13009.85829969
  Solvation  Ediel_sol  =         0.00000000
  ---------------------------------------------------
  free energy    TOTEN  =      -260.08703337 eV

  energy without entropy =     -260.08557056  energy(sigma->0) =     -260.08630197


--------------------------------------------------------------------------------------------------------




 average (electrostatic) potential at core
  the test charge radii are     1.1631  1.1712  1.1897
  (the norm of the test charge is              1.0000)
       1 -31.8020       2 -32.0622       3 -32.1237       4 -32.3349       5 -32.4207
       6 -32.1194       7 -32.2210       8 -32.1134       9 -32.3520      10 -32.2241
      11 -32.5607      12 -32.2024      13 -32.5360      14 -32.3621      15 -32.2262
      16 -32.4747      17 -88.5944      18 -88.5158      19 -88.7497      20 -88.7276
      21 -88.6642      22 -88.5908      23 -88.5758      24 -88.5466      25 -88.8172
      26 -88.4952      27 -88.7162      28 -88.6067      29 -88.6037      30 -88.6433
      31 -88.7141      32 -88.7685      33 -89.4852      34 -90.0036      35 -89.7940
      36 -90.1008      37 -89.7081      38 -89.8455      39 -89.7090      40 -89.3561
      41 -89.5076      42 -89.5570      43 -89.6563      44 -89.8132      45 -89.5141
      46 -89.6581      47 -89.4369      48 -89.9030      49 -89.5092      50 -89.6278
      51 -89.8190      52 -89.2365      53 -89.3977      54 -89.9531      55 -89.5087
      56 -89.9357      57 -89.5954      58 -89.8588      59 -89.7711      60 -89.5770
      61 -89.9694      62 -89.7921      63 -89.6328      64 -89.9317      65 -89.8095
      66 -89.3594      67 -89.8953      68 -89.6076      69 -89.2502      70 -89.6330
      71 -89.7307      72 -89.6018
 
 
 
 E-fermi :   4.8213     XC(G=0):  -8.7550     alpha+bet : -9.6594


 k-point     1 :       0.2500    0.2500    0.2500
  band No.  band energies     occupation 
      1      -8.1177      2.00000
      2      -7.9069      2.00000
      3      -7.8150      2.00000
      4      -7.6173      2.00000
      5      -7.5522      2.00000
      6      -7.4971      2.00000
      7      -7.4206      2.00000
      8      -7.3141      2.00000
      9      -7.2238      2.00000
     10      -7.1314      2.00000
     11      -7.0670      2.00000
     12      -6.9812      2.00000
     13      -6.9306      2.00000
     14      -6.8744      2.00000
     15      -6.7514      2.00000
     16      -6.7123      2.00000
     17      -6.6343      2.00000
     18      -6.5896      2.00000
     19      -6.5355      2.00000
     20      -6.4435      2.00000
     21      -6.4266      2.00000
     22      -6.4047      2.00000
     23      -6.3372      2.00000
     24      -6.3270      2.00000
     25      -6.2832      2.00000
     26      -6.2358      2.00000
     27      -6.2257      2.00000
     28      -6.1400      2.00000
     29      -6.1162      2.00000
     30      -6.1054      2.00000
     31      -6.0393      2.00000
     32      -5.9738      2.00000
     33      -5.9465      2.00000
     34      -5.9200      2.00000
     35      -5.8780      2.00000
     36      -5.8438      2.00000
     37      -5.7901      2.00000
     38      -5.7402      2.00000
     39      -5.6627      2.00000
     40      -5.6383      2.00000
     41      -4.6371      2.00000
     42      -4.5344      2.00000
     43      -4.4566      2.00000
     44      -4.3352      2.00000
     45      -4.2509      2.00000
     46      -4.1774      2.00000
     47      -4.1299      2.00000
     48      -4.0326      2.00000
     49      -4.0035      2.00000
     50      -3.9639      2.00000
     51      -3.8916      2.00000
     52      -3.8473      2.00000
     53      -3.7382      2.00000
     54      -3.7041      2.00000
     55      -3.6429      2.00000
     56      -3.5258      2.00000
     57      -3.4341      2.00000
     58      -3.2214      2.00000
     59      -3.1603      2.00000
     60      -3.0735      2.00000
     61      -2.9581      2.00000
     62      -2.8878      2.00000
     63      -2.8268      2.00000
     64      -2.7963      2.00000
     65      -2.7255      2.00000
     66      -2.6466      2.00000
     67      -2.6130      2.00000
     68      -2.4359      2.00000
     69      -2.4080      2.00000
     70      -2.1808      2.00000
     71      -2.1123      2.00000
     72      -1.8768      2.00000
     73      -0.2854      2.00000
     74      -0.1787      2.00000
     75      -0.1075      2.00000
     76      -0.0195      2.00000
     77       0.1293      2.00000
     78       0.2058      2.00000
     79       0.2276      2.00000
     80       0.2964      2.00000
     81       0.3524      2.00000
     82       0.3962      2.00000
     83       0.4631      2.00000
     84       0.5065      2.00000
     85       0.5669      2.00000
     86       0.6318      2.00000
     87       0.6846      2.00000
     88       0.7137      2.00000
     89       0.7584      2.00000
     90       0.8042      2.00000
     91       0.8329      2.00000
     92       0.8718      2.00000
     93       0.9125      2.00000
     94       0.9800      2.00000
     95       1.0430      2.00000
     96       1.0937      2.00000
     97       1.1130      2.00000
     98       1.1531      2.00000
     99       1.1664      2.00000
    100       1.2260      2.00000
    101       1.2626      2.00000
    102       1.2732      2.00000
    103       1.3399      2.00000
    104       1.3571      2.00000
    105       1.4053      2.00000
    106       1.4284      2.00000
    107       1.4602      2.00000
    108       1.5090      2.00000
    109       1.5326      2.00000
    110       1.5589      2.00000
    111       1.5875      2.00000
    112       1.6431      2.00000
    113       1.6904      2.00000
    114       1.7133      2.00000
    115       1.7303      2.00000
    116       1.7966      2.00000
    117       1.8262      2.00000
    118       1.8504      2.00000
    119       1.8970      2.00000
    120       1.9508      2.00000
    121       1.9831      2.00000
    122       2.0202      2.00000
    123       2.0549      2.00000
    124       2.0744      2.00000
    125       2.1077      2.00000
    126       2.1265      2.00000
    127       2.1552      2.00000
    128       2.2213      2.00000
    129       2.2541      2.00000
    130       2.2650      2.00000
    131       2.3295      2.00000
    132       2.3816      2.00000
    133       2.3938      2.00000
    134       2.4189      2.00000
    135       2.4743      2.00000
    136       2.5007      2.00000
    137       2.5426      2.00000
[...]
    FORCOR:  cpu time    0.4163: real time    0.4173
    FORHAR:  cpu time    0.3235: real time    0.3235
    MIXING:  cpu time    0.0176: real time    0.0176
    OFIELD:  cpu time    0.0002: real time    0.0002

  FORCE on cell =-STRESS in cart. coord.  units (eV):
  Direction    XX          YY          ZZ          XY          YZ          ZX
  --------------------------------------------------------------------------------------
  Alpha Z   118.48961   118.48961   118.48961
  Ewald   -4238.57588 -4120.36943 -4278.31638   -62.09884   -77.94335   -52.42978
  Hartree   397.24964   447.39075   376.43523   -19.70259   -40.87662   -16.90337
  E(xc)   -1464.92523 -1463.63477 -1463.33816    -0.14503    -0.13792    -0.57296
  Local   -2554.17522 -2731.02135 -2493.39895    81.11901   114.16558    56.24762
  n-local  6042.58625  6041.85240  6031.35639    -0.80000     1.46000     5.78163
  augment -1321.07343 -1321.13540 -1320.45437     0.05592    -1.04056    -3.54623
  Kinetic  3026.29507  3028.04178  3033.48241    -2.63166     2.38853    19.91163
  Fock        0.00000     0.00000     0.00000     0.00000     0.00000     0.00000
  -------------------------------------------------------------------------------------
  Total       5.87081    -0.38640     4.25578    -4.20319    -1.98434     8.48856
  in kB       3.88562    -0.25574     2.81671    -2.78190    -1.31334     5.61819
  external pressure =        2.15 kB  Pullay stress =        0.00 kB


 VOLUME and BASIS-vectors are now :
 -----------------------------------------------------------------------------
  energy-cutoff  :      250.00
  volume of cell :     2420.74
      direct lattice vectors                 reciprocal lattice vectors
    13.585560727  0.000000000  0.000000000     0.073607562 -0.004840744  0.000943389
     0.939933049 14.292467961  0.000000000     0.000000000  0.069966923 -0.002102270
    -0.135148621  0.374592518 12.467042538     0.000000000  0.000000000  0.080211485

  length of vectors
    13.585560727 14.323341598 12.473401073     0.073772596  0.069998499  0.080211485


 FORCES acting on ions
    electron-ion (+dipol)            ewald-force                    non-local-force                 convergence-correction
 -----------------------------------------------------------------------------------------------
   -.105E+02 -.198E+02 0.126E+02   0.120E+02 0.205E+02 -.138E+02   -.113E+01 -.225E+00 0.934E+00   0.424E-04 0.934E-04 0.242E-03
   0.121E+02 0.847E+01 0.401E+01   -.134E+02 -.972E+01 -.478E+01   0.938E+00 0.174E+01 0.891E+00   -.348E-04 0.186E-05 -.168E-03
   0.167E+02 -.101E+02 0.819E+00   -.187E+02 0.979E+01 -.931E+00   0.948E+00 0.274E+00 -.357E+00   -.793E-04 0.689E-04 -.513E-04
   0.286E+00 0.155E+02 0.678E+01   -.390E+00 -.170E+02 -.716E+01   -.155E+00 0.135E+01 0.234E+00   0.959E-04 -.512E-04 0.236E-04
   -.341E+01 0.210E+02 -.775E+01   0.284E+01 -.235E+02 0.783E+01   0.105E+01 0.183E+01 -.218E+00   -.571E-05 -.353E-03 0.187E-04
   0.284E+01 -.561E+01 -.264E+02   -.263E+01 0.463E+01 0.279E+02   -.192E+00 0.107E+01 -.153E+01   0.213E-04 0.668E-05 0.368E-03
   -.111E+02 -.688E+01 0.650E+01   0.128E+02 0.783E+01 -.689E+01   -.722E+00 -.904E+00 -.467E-01   -.364E-04 0.919E-04 -.105E-03
   -.999E+01 0.117E+02 -.115E+02   0.111E+02 -.136E+02 0.134E+02   -.118E+01 0.113E+01 -.139E+01   0.656E-04 -.121E-03 -.127E-04
   0.756E+01 -.100E+02 -.905E+01   -.854E+01 0.848E+01 0.106E+02   0.131E+01 0.213E+01 -.949E+00   0.318E-04 0.889E-04 0.175E-03
   -.344E+02 0.305E+00 0.174E+02   0.358E+02 0.442E+00 -.184E+02   -.114E+01 -.275E+00 0.132E+01   0.105E-03 0.357E-05 -.128E-03
   -.133E+02 0.110E+01 -.279E+02   0.142E+02 -.127E+01 0.291E+02   -.920E+00 -.259E+00 -.883E+00   0.204E-03 0.792E-04 0.170E-03
   -.844E+01 -.104E+01 0.193E+01   0.836E+01 -.156E+00 -.102E+01   0.411E+00 0.104E+01 -.628E+00   -.933E-04 0.174E-04 -.349E-04
   0.446E+01 0.132E+01 -.299E+01   -.474E+01 0.107E-01 0.344E+01   -.384E+00 -.144E+01 -.641E+00   -.142E-03 -.252E-03 -.203E-04
   -.125E+02 0.187E+02 -.326E+01   0.130E+02 -.192E+02 0.272E+01   -.711E+00 0.574E+00 0.331E+00   0.177E-03 -.210E-03 0.717E-04
   0.257E+02 -.364E+01 0.134E+02   -.277E+02 0.395E+01 -.151E+02   0.115E+01 -.552E+00 0.188E+01   -.284E-04 0.793E-04 -.369E-03
   -.193E+02 -.138E+02 -.285E+02   0.201E+02 0.155E+02 0.300E+02   -.653E+00 -.124E+01 -.134E+01   0.770E-04 0.344E-04 0.636E-04
   -.169E+02 -.149E+02 -.568E+01   0.167E+02 0.119E+02 0.340E+01   0.906E+00 0.333E+01 0.225E+01   -.108E-03 0.301E-03 0.161E-03
   0.933E+00 -.237E+02 0.268E+02   0.615E+00 0.244E+02 -.296E+02   -.163E+01 -.591E+00 0.244E+01   -.126E-03 -.100E-03 -.138E-03
   0.884E+01 -.184E+01 0.102E+02   -.757E+01 -.287E+01 -.139E+02   -.127E+01 0.451E+01 0.265E+01   0.141E-03 0.669E-04 0.303E-04
   0.128E+02 0.179E+02 -.387E+02   -.173E+02 -.171E+02 0.410E+02   0.451E+01 -.122E+01 -.210E+01   -.251E-04 0.281E-04 0.256E-04
   -.249E+02 0.876E+00 0.166E+02   0.289E+02 0.745E+00 -.163E+02   -.347E+01 -.193E+01 -.134E+01   0.238E-03 0.779E-04 -.164E-04
   -.124E+01 -.208E+01 -.569E+01   0.202E+01 0.774E+01 0.379E+01   -.167E+00 -.586E+01 0.195E+01   -.157E-03 -.231E-03 0.820E-04
   0.241E+01 0.180E+01 0.849E+01   -.755E+01 -.147E+01 -.129E+02   0.540E+01 -.687E-01 0.455E+01   -.625E-04 -.147E-03 -.237E-03
   -.161E+02 -.130E+02 -.221E+02   0.186E+02 0.187E+02 0.229E+02   -.159E+01 -.554E+01 -.396E+00   -.135E-04 -.527E-04 -.215E-04
   -.380E+01 0.696E+01 0.685E+01   0.240E+01 -.712E+01 -.663E+01   0.232E+01 0.258E+00 -.286E+00   -.181E-03 0.491E-04 0.168E-03
   0.152E+02 -.787E+01 0.380E+01   -.134E+02 0.121E+02 -.220E+01   -.228E+01 -.459E+01 -.126E+01   0.510E-04 -.174E-03 0.152E-03
   0.334E+02 0.247E+01 0.179E+02   -.355E+02 -.226E+01 -.197E+02   0.274E+01 -.473E-01 0.166E+01   -.336E-03 0.343E-05 -.121E-03
   0.873E+01 0.416E+02 0.152E+02   -.110E+02 -.474E+02 -.135E+02   0.163E+01 0.482E+01 -.191E+01   -.227E-04 -.292E-04 0.351E-04
   -.363E+02 -.102E+02 0.642E+01   0.435E+02 0.956E+01 -.382E+01   -.628E+01 0.401E+00 -.265E+01   0.417E-03 0.151E-03 -.236E-03
   0.413E+02 -.193E+01 0.217E+02   -.492E+02 0.426E+01 -.239E+02   0.696E+01 -.213E+01 0.242E+01   -.224E-03 0.218E-03 -.258E-03
   0.103E+01 0.793E+01 0.240E+00   0.771E+00 -.108E+02 -.364E+01   -.216E+01 0.260E+01 0.233E+01   -.158E-04 -.989E-04 -.836E-05
   0.232E+01 0.126E+02 0.733E+01   -.236E+01 -.102E+02 -.862E+01   -.386E+00 -.238E+01 0.107E+01   0.142E-03 -.173E-03 0.418E-04
   0.145E+02 0.237E+02 -.424E+02   -.166E+02 -.262E+02 0.450E+02   0.280E+01 0.258E+01 -.265E+01   0.112E-03 -.144E-03 -.238E-03
   0.214E+02 -.200E+02 -.309E+02   -.236E+02 0.240E+02 0.346E+02   0.231E+01 -.381E+01 -.260E+01   -.174E-03 0.114E-03 0.170E-03
   0.215E+02 0.211E+02 -.152E+02   -.243E+02 -.234E+02 0.177E+02   0.214E+01 0.223E+01 -.246E+01   -.780E-04 0.322E-04 -.181E-03
   0.208E+02 0.237E+01 -.441E+02   -.229E+02 -.258E+01 0.475E+02   0.195E+01 -.154E+00 -.286E+01   -.382E-04 0.697E-04 0.320E-03
   0.168E+02 -.109E+02 -.318E+02   -.213E+02 0.121E+02 0.333E+02   0.411E+01 -.111E+01 -.133E+01   0.993E-04 0.454E-04 0.216E-03
   -.880E+01 0.320E+02 0.789E+01   0.823E+01 -.339E+02 -.727E+01   -.130E+00 0.180E+01 -.101E+01   -.544E-04 -.447E-03 -.146E-03
   0.418E+02 0.158E+02 0.311E+02   -.471E+02 -.165E+02 -.325E+02   0.456E+01 0.470E+00 0.163E+01   -.359E-03 -.238E-04 -.402E-03
   0.361E+02 -.281E+02 -.301E+01   -.376E+02 0.302E+02 0.648E+01   0.136E+01 -.179E+01 -.392E+01   -.105E-03 -.388E-05 -.192E-03
   -.520E+01 0.554E+02 0.164E+02   0.845E+01 -.591E+02 -.169E+02   -.331E+01 0.281E+01 0.412E+00   0.519E-04 0.100E-03 -.230E-03
   0.326E+02 -.939E+01 0.132E+02   -.336E+02 0.638E+01 -.107E+02   0.617E+00 0.344E+01 -.317E+01   0.503E-04 0.152E-03 -.499E-03
   0.458E+02 -.206E+02 0.335E+01   -.495E+02 0.235E+02 -.454E+01   0.327E+01 -.257E+01 0.114E+01   -.559E-04 0.131E-03 -.156E-03
   -.348E+02 -.289E+01 0.353E+02   0.398E+02 0.157E+01 -.377E+02   -.406E+01 0.233E+01 0.212E+01   -.111E-03 -.689E-04 -.259E-03
   -.369E+02 -.101E+02 0.346E+02   0.377E+02 0.109E+02 -.372E+02   -.291E+00 -.694E+00 0.231E+01   0.343E-03 0.250E-03 -.159E-03
   -.364E+02 -.283E+02 -.210E+02   0.380E+02 0.325E+02 0.217E+02   -.144E+01 -.413E+01 -.471E+00   0.220E-03 0.139E-03 -.129E-03
   -.310E+02 -.107E+02 -.658E+00   0.342E+02 0.126E+02 0.227E+00   -.341E+01 -.310E+01 0.449E+00   -.508E-04 -.283E-03 -.141E-03
   -.290E+02 -.612E+01 -.552E+02   0.334E+02 0.619E+01 0.559E+02   -.512E+01 0.310E+00 -.215E+00   -.199E-03 0.172E-03 0.358E-03
   -.212E+02 0.965E+01 -.387E+02   0.240E+02 -.996E+01 0.409E+02   -.289E+01 0.614E+00 -.154E+01   0.205E-03 -.134E-03 0.287E-04
   0.848E+01 -.228E+01 -.654E+01   -.915E+01 0.119E+01 0.431E+01   0.468E+00 0.193E+01 0.222E+01   0.230E-03 0.220E-03 0.196E-03
   -.175E+02 0.126E+02 0.332E+02   0.212E+02 -.139E+02 -.363E+02   -.327E+01 0.140E+01 0.272E+01   -.215E-03 -.147E-03 -.416E-03
   -.162E+02 -.113E+02 -.108E+02   0.197E+02 0.925E+01 0.107E+02   -.358E+01 0.202E+01 -.495E-01   -.796E-04 -.664E-05 0.127E-03
   0.151E+02 -.212E+01 0.430E+02   -.192E+02 0.322E+01 -.447E+02   0.470E+01 -.834E+00 0.140E+01   0.105E-03 -.426E-04 0.232E-03
   0.240E+02 0.245E+02 -.663E+01   -.254E+02 -.267E+02 0.957E+01   0.889E+00 0.169E+01 -.261E+01   -.200E-04 -.156E-03 0.794E-06
   -.271E+02 -.109E+02 0.260E+01   0.289E+02 0.115E+02 -.139E+01   -.174E+01 -.128E+01 -.141E+01   -.110E-03 0.126E-03 0.165E-03
   0.273E+02 -.155E+02 -.959E+00   -.293E+02 0.188E+02 0.327E+01   0.133E+01 -.327E+01 -.198E+01   -.132E-04 -.196E-04 -.640E-04
   -.178E+02 0.306E+02 0.134E+02   0.175E+02 -.344E+02 -.121E+02   0.676E+00 0.354E+01 -.204E+01   0.825E-04 -.797E-04 -.115E-04
   0.277E+02 0.127E+02 -.915E+01   -.304E+02 -.122E+02 0.114E+02   0.312E+01 -.397E+00 -.233E+01   -.172E-03 -.361E-03 0.144E-04
   -.194E+02 -.918E+01 -.149E+02   0.194E+02 0.111E+02 0.157E+02   0.816E+00 -.264E+01 -.762E+00   -.178E-03 0.305E-03 0.221E-03
   -.200E+01 -.257E+02 -.321E+02   -.109E+01 0.263E+02 0.353E+02   0.308E+01 0.240E-01 -.284E+01   0.413E-03 0.234E-03 0.196E-03
   0.930E+01 0.191E+02 0.242E+01   -.113E+02 -.186E+02 -.377E+01   0.223E+01 -.843E+00 0.105E+01   0.106E-03 -.978E-04 0.136E-03
   -.486E+00 -.433E+02 0.285E+02   0.120E+01 0.474E+02 -.326E+02   -.131E+01 -.363E+01 0.415E+01   0.202E-03 0.181E-03 0.282E-04
   -.126E+02 0.370E+02 0.982E+01   0.134E+02 -.375E+02 -.113E+02   -.518E+00 0.448E+00 0.184E+01   -.202E-03 -.608E-03 0.109E-03
   0.123E+02 -.316E+02 0.797E-02   -.126E+02 0.350E+02 -.166E+01   0.407E-01 -.414E+01 0.180E+01   0.189E-04 0.131E-03 0.227E-03
   0.168E+01 -.898E-01 -.685E+01   -.920E+00 -.852E+00 0.641E+01   -.102E+01 0.132E+01 0.137E+01   0.234E-03 0.148E-04 0.409E-04
   -.506E+01 -.297E+02 0.148E+02   0.663E+01 0.332E+02 -.164E+02   -.183E+01 -.431E+01 0.158E+01   -.362E-03 0.358E-03 0.207E-03
   0.463E+01 0.223E+02 0.164E+02   -.331E+01 -.242E+02 -.183E+02   -.191E+01 0.234E+01 0.256E+01   0.223E-04 -.896E-04 0.161E-03
   -.408E+02 0.180E+02 0.350E+02   0.441E+02 -.174E+02 -.372E+02   -.234E+01 -.420E+00 0.243E+01   -.201E-03 -.251E-04 -.152E-03
   -.134E+02 0.345E+02 0.190E+02   0.153E+02 -.364E+02 -.185E+02   -.210E+01 0.242E+01 -.648E+00   0.123E-03 0.268E-04 0.150E-03
   -.202E+02 -.517E+02 0.159E+02   0.230E+02 0.547E+02 -.175E+02   -.262E+01 -.254E+01 0.163E+01   0.232E-03 0.769E-04 -.693E-04
   -.295E+01 0.254E+02 -.111E+02   0.347E+01 -.296E+02 0.115E+02   -.113E+01 0.477E+01 -.553E+00   0.201E-04 0.167E-03 0.390E-03
   0.376E+02 -.341E+02 -.111E+02   -.422E+02 0.351E+02 0.140E+02   0.457E+01 -.803E+00 -.235E+01   -.113E-03 0.970E-04 -.262E-04
 -----------------------------------------------------------------------------------------------
   -.488E+01 0.617E+01 -.204E+01   -.711E-14 -.234E-12 0.835E-13   0.488E+01 -.618E+01 0.203E+01   0.944E-04 -.126E-03 0.123E-03
 
 
 POSITION                                       TOTAL-FORCE (eV/Angst)
 -----------------------------------------------------------------------------------
      1.78405     11.21110      6.65298         0.349404      0.531437     -0.311435
      3.77507      8.63000      3.19985        -0.382965      0.490874      0.118681
      5.15645      6.14480      6.24516        -1.014188      0.013452     -0.469374
      9.15141     11.98300      9.34295        -0.258532     -0.163561     -0.138785
      6.63192      0.65398      0.25323         0.475631     -0.726268     -0.136753
      9.89284      8.57849     11.89410         0.013177      0.088975      0.012332
      5.70104      9.47900     12.20580         1.002882      0.042278     -0.436335
      5.07439     13.06920      2.66231        -0.047460     -0.800119      0.556356
      7.05820      7.27956      8.70912         0.337198      0.595709      0.568729
      9.37126      1.11594      3.10915         0.244064      0.472159      0.293432
      8.40708      4.27158     11.81110        -0.074042     -0.429558      0.270357
      0.76238      7.34848      5.74226         0.339040     -0.149864      0.276139
      2.93378      1.23837     12.08700        -0.659463     -0.110913     -0.187995
      1.13279     14.35060      9.48639        -0.188580      0.112725     -0.208152
      2.81188     11.43360      0.21455        -0.805240     -0.247510      0.243895
      0.50830      6.69504     11.89980         0.185706      0.441957      0.076924
      3.22392      8.91462      9.41436         0.687894      0.360849     -0.030506
     13.02160      9.84989      3.17547        -0.081894      0.098968     -0.422404
     11.25270      5.96647      9.44428         0.006269     -0.200738     -1.030646
     12.78540      3.05953     12.23580         0.051187     -0.465218      0.185544
      8.67888      4.16715      6.08913         0.518923     -0.312723     -1.037376
      6.78012     14.20711      6.47811         0.617547     -0.198521      0.046752
      9.28347     11.26570      3.74887         0.257128      0.268423      0.104330
     11.15630     12.26000     11.97380         0.900283      0.215905      0.487693
      1.01027      4.50466      8.75770         0.918129      0.090074     -0.071460
      2.58688      0.51314      5.79336        -0.500275     -0.375708      0.333839
      5.08411      2.73585      3.59904         0.669645      0.155852     -0.189088
     12.77350      3.20271      6.03664        -0.612252     -0.920281     -0.237437
      7.14240      7.02205      2.65607         0.926196     -0.234656     -0.047886
     11.72870      5.54566      2.99897        -0.951726      0.199992      0.214213
      5.32028      3.46720      9.47377        -0.356461     -0.270954     -1.067043
      9.55710      0.83479      9.05428        -0.429049      0.055727     -0.221840
     14.33198     14.40873     12.37129         0.755332      0.149583     -0.057784
      5.52348      3.53224     12.24350         0.069034      0.196892      1.075089
      3.14486      8.82631     12.39936        -0.664955     -0.112864      0.032116
     11.37450      5.96079     12.22660        -0.143558     -0.361956      0.560470
      8.61603     11.08710     12.09260        -0.352849      0.129858      0.144841
      6.85743      0.12341      3.38186        -0.695153     -0.179649     -0.393335
      4.74084      5.79081      3.16286        -0.806203     -0.203833      0.211092
      2.58769     11.19680      3.03246        -0.141636      0.242444     -0.446343
     12.94560      3.08159      2.96234        -0.058721     -0.839242     -0.104981
     10.48940      8.68430      4.49115        -0.356080      0.429438     -0.718100
      2.63667      0.97196      2.75707        -0.418299      0.296583     -0.048181
      0.59634      6.69124      2.93177         0.942375      1.011353     -0.198543
      7.87379      3.73320      3.14798         0.589736      0.146067     -0.355910
      6.18578      9.76167      2.57900         0.091917      0.041819      0.242335
     11.72980     12.86630      2.92081        -0.288925     -1.191554      0.017411
      1.84060      4.14820     11.67900        -0.660368      0.377646      0.419839
      9.28034      1.27783     11.99500        -0.027547      0.304980      0.649922
      7.24637      6.88138     12.15380        -0.195737      0.837806     -0.004730
      5.08524     13.04860     12.41790         0.448327      0.026139     -0.450030
     12.57625      9.80384     12.45775        -0.090187     -0.047947     -0.167641
     14.25070     13.88460      6.42634         0.600984      0.264684     -0.252118
      5.95700      3.35610      6.33627        -0.586899     -0.526773      0.323104
      3.38120      8.71280      6.07201         0.026653     -0.584877     -0.191757
     11.68540      5.83924      5.98163        -0.676510     -0.003288      0.331742
      8.33612     11.75780      6.59775         0.399936     -0.276470     -0.722129
      7.41132     14.30000      9.47161         0.443518      0.072935     -0.084610
      3.67694      5.93182      9.06028         0.904289     -0.731955      0.038016
      1.31538     11.01680      9.30769        -0.012846      0.614976      0.385181
     12.18340      2.62487      9.32502         0.207913     -0.307814     -0.296248
      9.80179      8.35531      9.05923        -0.588484      0.442459      0.065575
      2.71597      1.62616      8.99639         0.185677     -0.113053      0.345509
     13.84850      7.60895      9.12808        -0.234256     -0.737326      0.141624
      8.57109      4.06906      9.01680        -0.251915      0.380186      0.925747
      6.00313     10.08830      9.22346        -0.260111     -0.775732     -0.000983
     12.04470     12.53210      8.81770        -0.594273      0.385253      0.567674
      1.69257      4.29844      5.76200         0.874807      0.207357      0.242685
      9.90767      1.21647      5.97623        -0.262757      0.477087     -0.195603
      7.65936      7.08210      5.95996         0.268110      0.479290      0.033516
      4.78309     12.19090      6.10708        -0.609550      0.568077     -0.084429
     13.09020      9.88508      6.04283         0.031036      0.282658      0.475263
 -----------------------------------------------------------------------------------
    total drift:                               -0.002438     -0.002645     -0.006045


--------------------------------------------------------------------------------------------------------



  FREE ENERGIE OF THE ION-ELECTRON SYSTEM (eV)
  ---------------------------------------------------
  free  energy   TOTEN  =      -260.08703337 eV

  energy  without entropy=     -260.08557056  energy(sigma->0) =     -260.08630197
 


--------------------------------------------------------------------------------------------------------


    POTLOK:  cpu time    0.1814: real time    0.1815


--------------------------------------------------------------------------------------------------------


     LOOP+:  cpu time   56.3703: real time   56.7327
    4ORBIT:  cpu time    0.0000: real time    0.0000

 total amount of memory used by VASP MPI-rank0    81748. kBytes
=======================================================================

   base      :      30000. kBytes
   nonlr-proj:       5912. kBytes
   fftplans  :       8977. kBytes
   grid      :      15644. kBytes
   one-center:        146. kBytes
   wavefun   :      21069. kBytes
 
  
  
 General timing and accounting informations for this job:
 ========================================================
  
                  Total CPU time used (sec):       64.312
                            User time (sec):       61.113
                          System time (sec):        3.199
                         Elapsed time (sec):       65.199
  
                   Maximum memory used (kb):      737512.
                   Average memory used (kb):           0.
  
                          Minor page faults:        34279
                          Major page faults:            0
                 Voluntary context switches:         1617
