 vasp.6.0.8 29Jun18 (build Mar 14 2019 11:44:20) complex                        
  
 executed on             LinuxIFC date 2021.02.02  23:59:28
 running   64 mpi-ranks, with    1 threads/rank
 distrk:  each k-point on   16 cores,    4 groups
 distr:  one band on NCORES_PER_BAND=   4 cores,    4 groups


--------------------------------------------------------------------------------------------------------


 INCAR:
 POTCAR:    PAW_PBE Ge 05Jan2001                  
 POTCAR:    PAW_PBE Sb 06Sep2000                  
 POTCAR:    PAW_PBE Te 08Apr2002                  
 POTCAR:    PAW_PBE Ge 05Jan2001                  
   VRHFIN =Ge: s2p2                                                             
   LEXCH  = PE                                                                  
   EATOM  =   104.9960 eV,    7.7170 Ry                                         
                                                                                
   TITEL  = PAW_PBE Ge 05Jan2001                                                
   LULTRA =        F    use ultrasoft PP ?                                      
   IUNSCR =        1    unscreen: 0-lin 1-nonlin 2-no                           
   RPACOR =    2.170    partial core radius                                     
   POMASS =   72.610; ZVAL   =    4.000    mass and valenz                      
   RCORE  =    2.300    outmost cutoff radius                                   
   RWIGS  =    2.300; RWIGS  =    1.217    wigner-seitz radius (au A)           
   ENMAX  =  173.807; ENMIN  =  130.355 eV                                      
   ICORE  =        3    local potential                                         
   LCOR   =        T    correct aug charges                                     
   LPAW   =        T    paw PP                                                  
   EAUG   =  385.843                                                            
   DEXC   =    0.000                                                            
   RMAX   =    2.342    core radius for proj-oper                               
   RAUG   =    1.300    factor for augmentation sphere                          
   RDEP   =    2.318    radius for radial grids                                 
   RDEPT  =    2.103    core radius for aug-charge                              
                                                                                
   Atomic configuration                                                         
   10 entries                                                                   
     n  l   j            E        occ.                                          
     1  0  0.50    -10959.8463   2.0000                                         
     2  0  0.50     -1371.6056   2.0000                                         
     2  1  1.50     -1198.4791   6.0000                                         
     3  0  0.50      -168.4733   2.0000                                         
     3  1  1.50      -115.6019   6.0000                                         
     3  2  2.50       -29.3106  10.0000                                         
     4  0  0.50       -11.7309   2.0000                                         
     4  1  0.50        -3.8952   2.0000                                         
     4  2  1.50        -4.0817   0.0000                                         
     4  3  2.50        -4.0817   0.0000                                         
   Description                                                                  
     l       E           TYP  RCUT    TYP  RCUT                                 
     0    -11.7309493     23  2.300                                             
     0     -7.4578696     23  2.300                                             
     1     -3.8952261     23  2.300                                             
     1      6.1178114     23  2.300                                             
     2     -4.0817478     23  2.300                                             
     3     -1.3605826      7  2.300                                             
  local pseudopotential read in
  partial core-charges read in
  partial kinetic energy density read in
  atomic valenz-charges read in
  non local Contribution for L=           0  read in
    real space projection operators read in
  non local Contribution for L=           0  read in
    real space projection operators read in
  non local Contribution for L=           1  read in
    real space projection operators read in
  non local Contribution for L=           1  read in
    real space projection operators read in
  non local Contribution for L=           2  read in
    real space projection operators read in
    PAW grid and wavefunctions read in
 
   number of l-projection  operators is LMAX  =           5
   number of lm-projection operators is LMMAX =          13
 
 POTCAR:    PAW_PBE Sb 06Sep2000                  
   VRHFIN =Sb: s2p3                                                             
   LEXCH  = PE                                                                  
   EATOM  =   149.9515 eV,   11.0211 Ry                                         
                                                                                
   TITEL  = PAW_PBE Sb 06Sep2000                                                
   LULTRA =        F    use ultrasoft PP ?                                      
   IUNSCR =        1    unscreen: 0-lin 1-nonlin 2-no                           
   RPACOR =    2.200    partial core radius                                     
   POMASS =  121.750; ZVAL   =    5.000    mass and valenz                      
   RCORE  =    2.300    outmost cutoff radius                                   
   RWIGS  =    2.980; RWIGS  =    1.577    wigner-seitz radius (au A)           
   ENMAX  =  172.069; ENMIN  =  129.052 eV                                      
   ICORE  =        3    local potential                                         
   LCOR   =        T    correct aug charges                                     
   LPAW   =        T    paw PP                                                  
   EAUG   =  380.513                                                            
   DEXC   =    0.000                                                            
   RMAX   =    2.346    core radius for proj-oper                               
   RAUG   =    1.300    factor for augmentation sphere                          
   RDEP   =    2.360    radius for radial grids                                 
   RDEPT  =    2.192    core radius for aug-charge                              
                                                                                
   Atomic configuration                                                         
   13 entries                                                                   
     n  l   j            E        occ.                                          
     1  0  0.50    -30298.2797   2.0000                                         
     2  0  0.50     -4610.2252   2.0000                                         
     2  1  1.50     -4138.3407   6.0000                                         
     3  0  0.50      -903.8815   2.0000                                         
     3  1  1.50      -750.1337   6.0000                                         
     3  2  2.50      -515.7092  10.0000                                         
     4  0  0.50      -148.8034   2.0000                                         
     4  1  1.50      -101.7581   6.0000                                         
     4  2  2.50       -33.5048  10.0000                                         
     5  0  0.50       -12.8298   2.0000                                         
     5  1  0.50        -4.8276   3.0000                                         
     5  2  1.50        -4.0817   0.0000                                         
     4  3  2.50        -4.0817   0.0000                                         
   Description                                                                  
     l       E           TYP  RCUT    TYP  RCUT                                 
     0    -12.8297861     23  2.300                                             
     0     13.6058260     23  2.300                                             
     1     -4.8275512     23  2.300                                             
     1     -0.7245443     23  2.300                                             
     2     -4.0817478     23  2.300                                             
     3     -1.3605826     23  2.300                                             
  local pseudopotential read in
  partial core-charges read in
  partial kinetic energy density read in
  atomic valenz-charges read in
  non local Contribution for L=           0  read in
    real space projection operators read in
  non local Contribution for L=           0  read in
    real space projection operators read in
  non local Contribution for L=           1  read in
    real space projection operators read in
  non local Contribution for L=           1  read in
    real space projection operators read in
  non local Contribution for L=           2  read in
    real space projection operators read in
    PAW grid and wavefunctions read in
 
   number of l-projection  operators is LMAX  =           5
   number of lm-projection operators is LMMAX =          13
 
 POTCAR:    PAW_PBE Te 08Apr2002                  
   VRHFIN =Te: s2p4                                                             
   LEXCH  = PE                                                                  
   EATOM  =   223.2721 eV,   16.4100 Ry                                         
                                                                                
   TITEL  = PAW_PBE Te 08Apr2002                                                
   LULTRA =        F    use ultrasoft PP ?                                      
   IUNSCR =        1    unscreen: 0-lin 1-nonlin 2-no                           
   RPACOR =    2.200    partial core radius                                     
   POMASS =  127.600; ZVAL   =    6.000    mass and valenz                      
   RCORE  =    2.300    outmost cutoff radius                                   
   RWIGS  =    2.900; RWIGS  =    1.535    wigner-seitz radius (au A)           
   ENMAX  =  174.982; ENMIN  =  131.236 eV                                      
   ICORE  =        3    local potential                                         
   LCOR   =        T    correct aug charges                                     
   LPAW   =        T    paw PP                                                  
   EAUG   =  368.792                                                            
   DEXC   =    0.000                                                            
   RMAX   =    2.345    core radius for proj-oper                               
   RAUG   =    1.300    factor for augmentation sphere                          
   RDEP   =    2.397    radius for radial grids                                 
   RDEPT  =    2.174    core radius for aug-charge                              
                                                                                
   Atomic configuration                                                         
   13 entries                                                                   
     n  l   j            E        occ.                                          
     1  0  0.50    -31621.2075   2.0000                                         
     2  0  0.50     -4848.7941   2.0000                                         
     2  1  1.50     -4352.1960   6.0000                                         
     3  0  0.50      -964.9612   2.0000                                         
     3  1  1.50      -803.6179   6.0000                                         
     3  2  2.50      -559.8710  10.0000                                         
     4  0  0.50      -164.3522   2.0000                                         
     4  1  1.50      -114.3756   6.0000                                         
     4  2  2.50       -41.6483  10.0000                                         
     5  0  0.50       -15.1072   2.0000                                         
     5  1  0.50        -5.9526   4.0000                                         
     5  2  1.50        -5.4423   0.0000                                         
     4  3  2.50        -5.4423   0.0000                                         
   Description                                                                  
     l       E           TYP  RCUT    TYP  RCUT                                 
     0    -15.1072389     23  2.300                                             
     0    -16.4678215     23  2.300                                             
     1     -5.9526306     23  2.300                                             
     1     -2.4873968     23  2.300                                             
     2     -5.4423304     23  2.300                                             
     3     -1.3605826     23  2.300                                             
  local pseudopotential read in
  partial core-charges read in
  partial kinetic energy density read in
  atomic valenz-charges read in
  non local Contribution for L=           0  read in
    real space projection operators read in
  non local Contribution for L=           0  read in
    real space projection operators read in
  non local Contribution for L=           1  read in
    real space projection operators read in
  non local Contribution for L=           1  read in
    real space projection operators read in
  non local Contribution for L=           2  read in
    real space projection operators read in
    PAW grid and wavefunctions read in
 
   number of l-projection  operators is LMAX  =           5
   number of lm-projection operators is LMMAX =          13
 
 Optimization of the real space projectors (new method)

 maximal supplied QI-value         = 16.25
 optimisation between [QCUT,QGAM] = [  7.96, 16.09] = [ 17.76, 72.49] Ry 
 Optimized for a Real-space Cutoff    1.70 Angstroem

   l    n(q)    QCUT    max X(q) W(low)/X(q) W(high)/X(q)  e(spline) 
   0      8     7.963    65.336    0.10E-03    0.15E-03    0.79E-07
   0      8     7.963    52.220    0.10E-03    0.15E-03    0.78E-07
   1      8     7.963    36.409    0.24E-03    0.40E-04    0.27E-06
   1      8     7.963    21.334    0.25E-03    0.31E-04    0.27E-06
   2      7     7.963     4.673    0.11E-03    0.19E-03    0.65E-07
 Optimization of the real space projectors (new method)

 maximal supplied QI-value         = 16.25
 optimisation between [QCUT,QGAM] = [  7.96, 16.09] = [ 17.76, 72.49] Ry 
 Optimized for a Real-space Cutoff    1.75 Angstroem

   l    n(q)    QCUT    max X(q) W(low)/X(q) W(high)/X(q)  e(spline) 
   0      8     7.963    19.000    0.75E-04    0.15E-03    0.82E-07
   0      8     7.963     9.057    0.89E-04    0.18E-03    0.10E-06
   1      8     7.963   125.345    0.22E-03    0.74E-04    0.27E-06
   1      8     7.963    79.963    0.21E-03    0.75E-04    0.26E-06
   2      7     7.963     6.963    0.64E-04    0.13E-03    0.56E-07
 Optimization of the real space projectors (new method)

 maximal supplied QI-value         = 16.25
 optimisation between [QCUT,QGAM] = [  7.96, 16.09] = [ 17.76, 72.49] Ry 
 Optimized for a Real-space Cutoff    1.75 Angstroem

   l    n(q)    QCUT    max X(q) W(low)/X(q) W(high)/X(q)  e(spline) 
   0      8     7.963   224.858    0.89E-04    0.20E-03    0.93E-07
   0      8     7.963   205.313    0.90E-04    0.20E-03    0.94E-07
   1      8     7.963   119.695    0.22E-03    0.72E-04    0.27E-06
   1      8     7.963    84.282    0.22E-03    0.72E-04    0.27E-06
   2      7     7.963     5.599    0.62E-04    0.12E-03    0.56E-07
  PAW_PBE Ge 05Jan2001                  :
 energy of atom  1       EATOM= -104.9960
 kinetic energy error for atom=    0.0013 (will be added to EATOM!!)
  PAW_PBE Sb 06Sep2000                  :
 energy of atom  2       EATOM= -149.9515
 kinetic energy error for atom=    0.0023 (will be added to EATOM!!)
  PAW_PBE Te 08Apr2002                  :
 energy of atom  3       EATOM= -223.2721
 kinetic energy error for atom=    0.0032 (will be added to EATOM!!)
 
 
 POSCAR: Ge Sb Te
  positions in cartesian coordinates
  No initial velocities read in
 exchange correlation table for  LEXCH =        8
   RHO(1)=    0.500       N(1)  =     2000
   RHO(2)=  100.500       N(2)  =     4000
 


--------------------------------------------------------------------------------------------------------


 ion  position               nearest neighbor table
   1  0.058  0.838  0.481-  53 2.74  60 2.90  71 2.90  26 3.33
   2  0.136  0.694  0.173-  16 2.60  35 2.69  46 2.76  40 3.01
   3  0.371  0.390  0.478-  39 2.53  70 2.82   9 2.88  59 2.93
   4  0.428  0.840  0.779-  37 2.70  66 2.77  22 2.83  57 3.30
   5  0.439  0.992  0.044-  38 2.81  51 2.83  34 2.93  37 3.00
   6  0.533  0.479  0.931-  11 2.46  50 2.59  42 2.60  62 2.78
   7  0.338  0.689  0.990-  35 2.85  66 2.90  46 3.02  51 3.03  50 3.09  37 3.27
   8  0.274  0.881  0.269-  46 2.74  71 2.82  43 2.84  38 2.89
   9  0.472  0.465  0.638-  62 2.56  70 2.80  21 2.81   3 2.88  59 2.90  19 3.23
  10  0.647  0.069  0.255-  47 2.66  41 2.80  49 2.94
  11  0.626  0.330  0.915-   6 2.46  36 2.75  45 2.93  19 2.93
  12  0.933  0.443  0.480-  56 2.87  68 2.88  55 2.97  44 2.99  64 3.04
  13  0.208  0.081  0.051-  34 2.67  51 2.67  43 2.95
  14  0.909  0.939  0.757-  60 2.80  67 2.88  33 3.02  53 3.07  61 3.22
  15  0.053  0.831  0.995-  40 2.68  52 2.80  35 2.97  33 2.99
  16  0.041  0.554  0.121-   2 2.60  52 2.70  44 3.06  35 3.09  18 3.34
  17  0.076  0.597  0.642-  64 2.77  55 2.77  60 2.97  25 3.67
  18  0.917  0.707  0.300-  52 2.77  44 2.81  23 2.92  16 3.34  55 3.53  40 3.71
  19  0.659  0.408  0.699-  56 2.80  11 2.93  21 2.98   9 3.23  62 3.27  28 3.39
  20  0.874  0.223  0.997-  61 2.88  36 2.98  48 3.05  33 3.13  49 3.50
  21  0.550  0.278  0.582-  65 2.77   9 2.81  19 2.98  69 3.36  28 3.57
  22  0.499  0.001  0.671-   4 2.83  69 2.99  57 3.00  32 3.11  58 3.65
  23  0.743  0.766  0.276-  47 2.87  18 2.92  72 2.98  24 3.75
  24  0.766  0.925  0.038-  33 2.84  47 2.94  49 2.94  67 3.18  23 3.75
  25  0.988  0.366  0.729-  64 2.74  48 2.81  61 3.15  17 3.67
  26  0.087  0.075  0.535-  63 2.81  53 2.84  71 3.08  68 3.20  43 3.21  54 3.31   1 3.33
  27  0.343  0.173  0.304-  34 2.94  43 3.00  38 3.17  39 3.27  54 3.38
  28  0.774  0.242  0.519-  41 2.94  68 3.01  56 3.04  69 3.22  19 3.39  21 3.57
  29  0.411  0.476  0.218-  39 2.81  50 3.04  45 3.07  70 3.22  46 3.26  42 3.45  30 3.70
  30  0.645  0.438  0.184-  42 2.96  45 3.03  36 3.04  41 3.56  29 3.70
  31  0.273  0.278  0.774-  54 2.88  59 2.89  65 2.97  58 3.47
  32  0.669  0.047  0.761-  67 2.79  69 2.91  22 3.11  49 3.36
  33  0.929  0.000  0.991-  24 2.84  15 2.99  14 3.02  20 3.13
  34  0.346  0.183  0.066-  13 2.67   5 2.93  27 2.94  45 3.30
  35  0.168  0.652  0.956-   2 2.69   7 2.85  15 2.97  16 3.09  66 3.31
  36  0.771  0.406  0.978-  11 2.75  20 2.98  30 3.04
  37  0.517  0.799  0.944-   4 2.70   5 3.00   7 3.27  42 3.37  62 3.44
  38  0.439  0.963  0.268-   5 2.81   8 2.89  27 3.17
  39  0.269  0.401  0.337-   3 2.53  29 2.81  27 3.27
  40  0.060  0.900  0.200-  15 2.68   2 3.01  43 3.28  18 3.71
  41  0.743  0.233  0.289-  10 2.80  28 2.94  30 3.56  47 3.68
  42  0.569  0.605  0.083-   6 2.60  30 2.96  37 3.37  29 3.45
  43  0.184  0.065  0.290-   8 2.84  13 2.95  27 3.00  26 3.21  40 3.28  71 3.54
  44  0.881  0.509  0.272-  18 2.81  12 2.99  16 3.06  56 3.44
  45  0.518  0.294  0.118-  11 2.93  30 3.03  29 3.07  34 3.30  49 3.48
  46  0.297  0.681  0.234-   8 2.74   2 2.76   7 3.02  29 3.26
  47  0.790  0.966  0.268-  10 2.66  23 2.87  24 2.94  41 3.68
  48  0.016  0.364  0.949-  25 2.81  20 3.05
  49  0.677  0.115  0.025-  10 2.94  24 2.94  32 3.36  45 3.48  20 3.50
  50  0.372  0.464  0.984-   6 2.59  29 3.04   7 3.09  65 3.67
  51  0.287  0.906  0.001-  13 2.67   5 2.83   7 3.03  58 3.65
  52  0.934  0.699  0.074-  16 2.70  18 2.77  15 2.80
  53  0.932  0.984  0.515-   1 2.74  26 2.84  14 3.07  68 3.59
  54  0.273  0.159  0.572-  31 2.88  58 2.93  26 3.31  27 3.38  71 3.63
  55  0.073  0.574  0.418-  17 2.77  12 2.97  18 3.53
  56  0.751  0.462  0.506-  19 2.80  12 2.87  28 3.04  44 3.44  72 3.60
  57  0.541  0.812  0.535-  72 2.81  22 3.00   4 3.30
  58  0.270  0.024  0.747-  54 2.93  63 2.94  31 3.47  71 3.55  22 3.65  51 3.65
  59  0.289  0.471  0.692-  31 2.89   9 2.90   3 2.93  66 3.07
  60  0.051  0.809  0.712-  14 2.80   1 2.90  17 2.97  63 3.67
  61  0.887  0.174  0.765-  20 2.88  25 3.15  14 3.22  63 3.44
  62  0.529  0.600  0.759-   9 2.56   6 2.78  19 3.27  66 3.43  37 3.44
  63  0.087  0.071  0.761-  26 2.81  58 2.94  61 3.44  60 3.67
  64  0.912  0.546  0.707-  25 2.74  17 2.77  12 3.04
  65  0.458  0.263  0.786-  21 2.77  31 2.97  50 3.67
  66  0.323  0.685  0.758-   4 2.77   7 2.90  59 3.07  35 3.31  62 3.43
  67  0.742  0.863  0.792-  32 2.79  14 2.88  24 3.18
  68  0.962  0.233  0.448-  12 2.88  28 3.01  26 3.20  53 3.59
  69  0.653  0.058  0.529-  32 2.91  22 2.99  28 3.22  21 3.36
  70  0.457  0.565  0.450-   9 2.80   3 2.82  29 3.22
  71  0.225  0.909  0.497-   8 2.82   1 2.90  26 3.08  43 3.54  58 3.55  54 3.63
  72  0.705  0.723  0.510-  57 2.81  23 2.98  56 3.60
 
  LATTYP: Found a triclinic cell.
 ALAT       =    12.3579597657
 B/A-ratio  =     1.7289304057
 C/A-ratio  =     1.1058651973
 COS(alpha) =     0.0064372551
 COS(beta)  =     0.0598690264
 COS(gamma) =     0.6731596231
  
  Lattice vectors:
  
 A1 = (  -1.5708393256,   0.7998275538, -12.2315947149)
 A2 = ( -17.5001874681,   0.7998275538, -12.2315947149)
 A3 = (   0.5167475866,  13.6564644933,   0.0000000000)


Analysis of symmetry for initial positions (statically):
=====================================================================
 Subroutine PRICEL returns:
 Original cell was already a primitive cell.
 

 Routine SETGRP: Setting up the symmetry group for a 
 triclinic supercell.


 Subroutine GETGRP returns: Found  1 space group operations
 (whereof  1 operations were pure point group operations)
 out of a pool of  2 trial point group operations.


The static configuration has the point symmetry C_1 .


Analysis of symmetry for dynamics (positions and initial velocities):
=====================================================================
 Subroutine PRICEL returns:
 Original cell was already a primitive cell.
 

 Routine SETGRP: Setting up the symmetry group for a 
 triclinic supercell.


 Subroutine GETGRP returns: Found  1 space group operations
 (whereof  1 operations were pure point group operations)
 out of a pool of  2 trial point group operations.


The dynamic configuration has the point symmetry C_1 .


 Subroutine INISYM returns: Found  1 space group operations
 (whereof  1 operations are pure point group operations),
 and found     1 'primitive' translations


----------------------------------------------------------------------------------------

                                     Primitive cell                                     

  volume of cell :    2660.8437

  direct lattice vectors                    reciprocal lattice vectors
    15.929348143  0.000000000  0.000000000     0.062777208 -0.002375430 -0.008217476
     0.516747587 13.656464493  0.000000000     0.000000000  0.073225394  0.004788230
     1.570839326 -0.799827554 12.231594715     0.000000000  0.000000000  0.081755488

  length of vectors
    15.929348143 13.666237614 12.357959766     0.063357300  0.073381779  0.081755488

  position of ions in fractional coordinates (direct lattice)
     0.057683156  0.838092265  0.480700198
     0.136478168  0.694343056  0.173201455
     0.370509939  0.389730026  0.477945855
     0.427878202  0.840043363  0.778945855
     0.438735059  0.992163888  0.044198162
     0.533327755  0.479367148  0.931301295
     0.337859592  0.688996514  0.989846400
     0.274241882  0.881014225  0.269482441
     0.472474256  0.464888803  0.638259375
     0.647326049  0.069267441  0.255292958
     0.625869885  0.329959915  0.915367150
     0.932543088  0.442784997  0.480338021
     0.208006900  0.081204139  0.050987791
     0.908573579  0.938916139  0.757131855
     0.053284532  0.830883414  0.994751730
     0.040677264  0.554036684  0.121254018
     0.075745532  0.597246634  0.642272752
     0.917389403  0.707107663  0.300278098
     0.658921816  0.408291749  0.699002886
     0.873643558  0.222579146  0.996607579
     0.549549055  0.277664289  0.582166117
     0.499318856  0.000562125  0.671147973
     0.743172430  0.766322529  0.276255066
     0.765653462  0.924766030  0.038176298
     0.988364751  0.365969278  0.729277760
     0.086738965  0.075036541  0.534701333
     0.343063919  0.173162382  0.303572844
     0.773906962  0.241740304  0.519434313
     0.411249065  0.476073830  0.218291242
     0.644712374  0.438319930  0.184265425
     0.272997633  0.277598092  0.773514838
     0.668595102  0.046598030  0.760508357
     0.929112530  0.000211768  0.990909222
     0.346348910  0.182888926  0.065659304
     0.167589565  0.652486919  0.955811591
     0.770626819  0.406269797  0.977934626
     0.516546514  0.799063007  0.944423051
     0.438508955  0.963365039  0.267883304
     0.268531476  0.400659053  0.337080331
     0.060174381  0.900279884  0.200468545
     0.743332237  0.233093566  0.289304877
     0.569333767  0.605414355  0.082992449
     0.183659177  0.065455920  0.289981812
     0.880648434  0.508654430  0.271509977
     0.518281972  0.293696779  0.118350063
     0.297377944  0.681187039  0.234308777
     0.790259249  0.966346171  0.267772934
     0.015644823  0.363941544  0.949385609
     0.676707718  0.115275280  0.024521251
     0.371662786  0.464159993  0.983780143
     0.287071150  0.905516513  0.001317915
     0.934143933  0.698615732  0.073767078
     0.931834148  0.983587272  0.514516721
     0.273470376  0.158971913  0.572316216
     0.072770687  0.573537176  0.418302774
     0.751212208  0.462452607  0.505530975
     0.540999304  0.811888269  0.535269534
     0.270202210  0.023632692  0.747411128
     0.289439046  0.470790715  0.692282584
     0.050619881  0.809018410  0.712192498
     0.886679684  0.174397785  0.764973842
     0.528545051  0.599812072  0.758753884
     0.087160469  0.070545070  0.761316919
     0.911634377  0.545575989  0.707413890
     0.457625495  0.263150899  0.786383152
     0.323157312  0.684653593  0.758035253
     0.741814612  0.863110672  0.791720967
     0.962198406  0.233170512  0.447677521
     0.653300277  0.058117319  0.529284214
     0.457200972  0.564731389  0.449939695
     0.225315268  0.908775614  0.497184557
     0.705087730  0.722887820  0.510212294

  ion indices of the primitive-cell ions
   primitive index   ion index
                 1           1
                 2           2
                 3           3
                 4           4
                 5           5
                 6           6
                 7           7
                 8           8
                 9           9
                10          10
                11          11
                12          12
                13          13
                14          14
                15          15
                16          16
                17          17
                18          18
                19          19
                20          20
                21          21
                22          22
                23          23
                24          24
                25          25
                26          26
                27          27
                28          28
                29          29
                30          30
                31          31
                32          32
                33          33
                34          34
                35          35
                36          36
                37          37
                38          38
                39          39
                40          40
                41          41
                42          42
                43          43
                44          44
                45          45
                46          46
                47          47
                48          48
                49          49
                50          50
                51          51
                52          52
                53          53
                54          54
                55          55
                56          56
                57          57
                58          58
                59          59
                60          60
                61          61
                62          62
                63          63
                64          64
                65          65
                66          66
                67          67
                68          68
                69          69
                70          70
                71          71
                72          72

----------------------------------------------------------------------------------------

 
 

Automatic generation of k-mesh.
 generate k-points for:    2    2    2
Space group operators:
 irot       det(A)        alpha          n_x          n_y          n_z        tau_x        tau_y        tau_z
    1     1.000000     0.000000     1.000000     0.000000     0.000000     0.000000     0.000000     0.000000
 
 Subroutine IBZKPT returns following result:
 ===========================================
 
 Found      4 irreducible k-points:
 
 Following reciprocal coordinates:
            Coordinates               Weight
  0.250000  0.250000  0.250000      2.000000
 -0.250000  0.250000  0.250000      2.000000
  0.250000 -0.250000  0.250000      2.000000
 -0.250000 -0.250000  0.250000      2.000000
 
 Following cartesian coordinates:
            Coordinates               Weight
  0.015694  0.017712  0.019582      2.000000
 -0.015694  0.018900  0.023690      2.000000
  0.015694 -0.018900  0.017187      2.000000
 -0.015694 -0.017712  0.021296      2.000000
 


--------------------------------------------------------------------------------------------------------




 Dimension of arrays:
   k-points           NKPTS =      4   k-points in BZ     NKDIM =      4   number of bands    NBANDS=    232
   number of dos      NEDOS =    301   number of ions     NIONS =     72
   non local maximal  LDIM  =      5   non local SUM 2l+1 LMDIM =     13
   total plane-waves  NPLWV = 376320
   max r-space proj   IRMAX =   3204   max aug-charges    IRDMAX=   8424
   dimension x,y,z NGX =    84 NGY =   70 NGZ =   64
   dimension x,y,z NGXF=   168 NGYF=  140 NGZF=  128
   support grid    NGXF=   168 NGYF=  140 NGZF=  128
   ions per type =              16  16  40
   NGX,Y,Z   is equivalent  to a cutoff of   8.77,  8.52,  8.61 a.u.
   NGXF,Y,Z  is equivalent  to a cutoff of  17.53, 17.03, 17.22 a.u.

 SYSTEM =  unknown system                          
 POSCAR =  Ge Sb Te                                

 Startparameter for this run:
   NWRITE =      2    write-flag & timer
   PREC   = accura    normal or accurate (medium, high low for compatibility)
   ISTART =      0    job   : 0-new  1-cont  2-samecut
   ICHARG =      2    charge: 1-file 2-atom 10-const
   ISPIN  =      1    spin polarized calculation?
   LNONCOLLINEAR =      F non collinear calculations
   LSORBIT =      F    spin-orbit coupling
   INIWAV =      1    electr: 0-lowe 1-rand  2-diag
   LASPH  =      F    aspherical Exc in radial PAW
   METAGGA=      F    non-selfconsistent MetaGGA calc.

 Electronic Relaxation 1
   ENCUT  =  250.0 eV  18.37 Ry    4.29 a.u.  20.54 17.62 15.93*2*pi/ulx,y,z
   ENINI  =  250.0     initial cutoff
   ENAUG  =  385.8 eV  augmentation charge cutoff
   NELM   =     60;   NELMIN=  2; NELMDL= -5     # of ELM steps 
   EDIFF  = 0.1E-05   stopping-criterion for ELM
   LREAL  =      T    real-space projection
   NLSPLINE    = F    spline interpolate recip. space projectors
   LCOMPAT=      F    compatible to vasp.4.4
   GGA_COMPAT  = T    GGA compatible to vasp.4.4-vasp.4.6
   LMAXPAW     = -100 max onsite density
   LMAXMIX     =    2 max onsite mixed and CHGCAR
   VOSKOWN=      0    Vosko Wilk Nusair interpolation
   ROPT   =   -0.00025  -0.00025  -0.00025
 Ionic relaxation
   EDIFFG = 0.1E-04   stopping-criterion for IOM
   NSW    =      0    number of steps for IOM
   NBLOCK =      1;   KBLOCK =      1    inner block; outer block 
   IBRION =     -1    ionic relax: 0-MD 1-quasi-New 2-CG
   NFREE  =      0    steps in history (QN), initial steepest desc. (CG)
   ISIF   =      2    stress and relaxation
   IWAVPR =     10    prediction:  0-non 1-charg 2-wave 3-comb
   ISYM   =      2    0-nonsym 1-usesym 2-fastsym
   LCORR  =      T    Harris-Foulkes like correction to forces

   POTIM  = 0.5000    time-step for ionic-motion
   TEIN   =    0.0    initial temperature
   TEBEG  =    0.0;   TEEND  =   0.0 temperature during run
   SMASS  =  -3.00    Nose mass-parameter (am)
   estimated Nose-frequenzy (Omega)   =  0.10E-29 period in steps = 0.13E+47 mass=  -0.580E-26a.u.
   SCALEE = 1.0000    scale energy and forces
   NPACO  =    256;   APACO  = 16.0  distance and # of slots for P.C.
   PSTRESS=    0.0 pullay stress

  Mass of Ions in am
   POMASS =  72.61121.75127.60
  Ionic Valenz
   ZVAL   =   4.00  5.00  6.00
  Atomic Wigner-Seitz radii
   RWIGS  =  -1.00 -1.00 -1.00
  virtual crystal weights 
   VCA    =   1.00  1.00  1.00
   NELECT =     384.0000    total number of electrons
   NUPDOWN=      -1.0000    fix difference up-down

 DOS related values:
   EMIN   =  10.00;   EMAX   =-10.00  energy-range for DOS
   EFERMI =   0.00
   ISMEAR =     0;   SIGMA  =   0.05  broadening in eV -4-tet -1-fermi 0-gaus

 Electronic relaxation 2 (details)
   IALGO  =     68    algorithm
   LDIAG  =      T    sub-space diagonalisation (order eigenvalues)
   LSUBROT=      F    optimize rotation matrix (better conditioning)
   TURBO    =      0    0=normal 1=particle mesh
   IRESTART =      0    0=no restart 2=restart with 2 vectors
   NREBOOT  =      0    no. of reboots
   NMIN     =      0    reboot dimension
   EREF     =   0.00    reference energy to select bands
   IMIX   =      4    mixing-type and parameters
     AMIX     =   0.40;   BMIX     =  1.00
     AMIX_MAG =   1.60;   BMIX_MAG =  1.00
     AMIN     =   0.10
     WC   =   100.;   INIMIX=   1;  MIXPRE=   1;  MAXMIX= -45

 Intra band minimization:
   WEIMIN = 0.0000     energy-eigenvalue tresh-hold
   EBREAK =  0.11E-08  absolut break condition
   DEPER  =   0.30     relativ break condition  

   TIME   =   0.40     timestep for ELM

  volume/ion in A,a.u.               =      36.96       249.39
  Fermi-wavevector in a.u.,A,eV,Ry     =   0.858708  1.622723 10.032653  0.737379
  Thomas-Fermi vector in A             =   1.975953
 
 Write flags
   LWAVE        =      F    write WAVECAR
   LDOWNSAMPLE  =      F    k-point downsampling of WAVECAR
   LCHARG       =      F    write CHGCAR
   LVTOT        =      F    write LOCPOT, total local potential
   LVHAR        =      F    write LOCPOT, Hartree potential only
   LELF         =      F    write electronic localiz. function (ELF)
   LORBIT       =      0    0 simple, 1 ext, 2 COOP (PROOUT), +10 PAW based schemes


 Dipole corrections
   LMONO  =      F    monopole corrections only (constant potential shift)
   LDIPOL =      F    correct potential (dipole corrections)
   IDIPOL =      0    1-x, 2-y, 3-z, 4-all directions 
   EPSILON=  1.0000000 bulk dielectric constant

 Exchange correlation treatment:
   GGA     =    --    GGA type
   LEXCH   =     8    internal setting for exchange type
   VOSKOWN=      0    Vosko Wilk Nusair interpolation
   LHFCALC =     F    Hartree Fock is set to
   LHFONE  =     F    Hartree Fock one center treatment
   AEXX    =    0.0000 exact exchange contribution

 Linear response parameters
   LEPSILON=     F    determine dielectric tensor
   LRPA    =     F    only Hartree local field effects (RPA)
   LNABLA  =     F    use nabla operator in PAW spheres
   LVEL    =     F    velocity operator in full k-point grid
   LINTERFAST=   F  fast interpolation
   KINTER  =     0    interpolate to denser k-point grid
   CSHIFT  =0.1000    complex shift for real part using Kramers Kronig
   OMEGAMAX=  -1.0    maximum frequency
   DEG_THRESHOLD= 0.2000000E-02 threshold for treating states as degnerate
   RTIME   =   -0.100 relaxation time in fs
  (WPLASMAI=    0.000 imaginary part of plasma frequency in eV, 0.658/RTIME)
   DFIELD  = 0.0000000 0.0000000 0.0000000 field for delta impulse in time
 
 Orbital magnetization related:
   ORBITALMAG=     F  switch on orbital magnetization
   LCHIMAG   =     F  perturbation theory with respect to B field
   DQ        =  0.001000  dq finite difference perturbation B field
   LLRAUG    =     F  two centre corrections for induced B field



--------------------------------------------------------------------------------------------------------


 Static calculation
 charge density and potential will be updated during run
 non-spin polarized calculation
 RMM-DIIS sequential band-by-band and
  variant of blocked Davidson during initial phase
 perform sub-space diagonalisation
    before iterative eigenvector-optimisation
 modified Broyden-mixing scheme, WC =      100.0
 initial mixing is a Kerker type mixing with AMIX =  0.4000 and BMIX =      1.0000
 Hartree-type preconditioning will be used
 using additional bands           40
 real space projection scheme for non local part
 use partial core corrections
 calculate Harris-corrections to forces 
   (improved forces if not selfconsistent)
 use gradient corrections 
 use of overlap-Matrix (Vanderbilt PP)
 Gauss-broadening in eV      SIGMA  =   0.05


--------------------------------------------------------------------------------------------------------


  energy-cutoff  :      250.00
  volume of cell :     2660.84
      direct lattice vectors                 reciprocal lattice vectors
    15.929348143  0.000000000  0.000000000     0.062777208 -0.002375430 -0.008217476
     0.516747587 13.656464493  0.000000000     0.000000000  0.073225394  0.004788230
     1.570839326 -0.799827554 12.231594715     0.000000000  0.000000000  0.081755488

  length of vectors
    15.929348143 13.666237614 12.357959766     0.063357300  0.073381779  0.081755488


 
 k-points in units of 2pi/SCALE and weight: read from INCAR                         
   0.01569430  0.01771249  0.01958156       0.250
  -0.01569430  0.01890021  0.02369030       0.250
   0.01569430 -0.01890021  0.01718745       0.250
  -0.01569430 -0.01771249  0.02129618       0.250
 
 k-points in reciprocal lattice and weights: read from INCAR                         
   0.25000000  0.25000000  0.25000000       0.250
  -0.25000000  0.25000000  0.25000000       0.250
   0.25000000 -0.25000000  0.25000000       0.250
  -0.25000000 -0.25000000  0.25000000       0.250
 
 position of ions in fractional coordinates (direct lattice) 
   0.05768316  0.83809227  0.48070020
   0.13647817  0.69434306  0.17320145
   0.37050994  0.38973003  0.47794586
   0.42787820  0.84004336  0.77894585
   0.43873506  0.99216389  0.04419816
   0.53332776  0.47936715  0.93130130
   0.33785959  0.68899651  0.98984640
   0.27424188  0.88101422  0.26948244
   0.47247426  0.46488880  0.63825938
   0.64732605  0.06926744  0.25529296
   0.62586989  0.32995992  0.91536715
   0.93254309  0.44278500  0.48033802
   0.20800690  0.08120414  0.05098779
   0.90857358  0.93891614  0.75713186
   0.05328453  0.83088341  0.99475173
   0.04067726  0.55403668  0.12125402
   0.07574553  0.59724663  0.64227275
   0.91738940  0.70710766  0.30027810
   0.65892182  0.40829175  0.69900289
   0.87364356  0.22257915  0.99660758
   0.54954905  0.27766429  0.58216612
   0.49931886  0.00056213  0.67114797
   0.74317243  0.76632253  0.27625507
   0.76565346  0.92476603  0.03817630
   0.98836475  0.36596928  0.72927776
   0.08673896  0.07503654  0.53470133
   0.34306392  0.17316238  0.30357284
   0.77390696  0.24174030  0.51943431
   0.41124907  0.47607383  0.21829124
   0.64471237  0.43831993  0.18426543
   0.27299763  0.27759809  0.77351484
   0.66859510  0.04659803  0.76050836
   0.92911253  0.00021177  0.99090922
   0.34634891  0.18288893  0.06565930
   0.16758956  0.65248692  0.95581159
   0.77062682  0.40626980  0.97793463
   0.51654651  0.79906301  0.94442305
   0.43850896  0.96336504  0.26788330
   0.26853148  0.40065905  0.33708033
   0.06017438  0.90027988  0.20046855
   0.74333224  0.23309357  0.28930488
   0.56933377  0.60541436  0.08299245
   0.18365918  0.06545592  0.28998181
   0.88064843  0.50865443  0.27150998
   0.51828197  0.29369678  0.11835006
   0.29737794  0.68118704  0.23430878
   0.79025925  0.96634617  0.26777293
   0.01564482  0.36394154  0.94938561
   0.67670772  0.11527528  0.02452125
   0.37166279  0.46415999  0.98378014
   0.28707115  0.90551651  0.00131791
   0.93414393  0.69861573  0.07376708
   0.93183415  0.98358727  0.51451672
   0.27347038  0.15897191  0.57231622
   0.07277069  0.57353718  0.41830277
   0.75121221  0.46245261  0.50553097
   0.54099930  0.81188827  0.53526953
   0.27020221  0.02363269  0.74741113
   0.28943905  0.47079072  0.69228258
   0.05061988  0.80901841  0.71219250
   0.88667968  0.17439778  0.76497384
   0.52854505  0.59981207  0.75875388
   0.08716047  0.07054507  0.76131692
   0.91163438  0.54557599  0.70741389
   0.45762549  0.26315090  0.78638315
   0.32315731  0.68465359  0.75803525
   0.74181461  0.86311067  0.79172097
   0.96219841  0.23317051  0.44767752
   0.65330028  0.05811732  0.52928421
   0.45720097  0.56473139  0.44993970
   0.22531527  0.90877561  0.49718456
   0.70508773  0.72288782  0.51021229
 
 position of ions in cartesian coordinates  (Angst):
   2.10704000 11.06090000  5.87973000
   2.80488000  9.34374000  2.11853000
   6.85415000  4.94006000  5.84604000
   8.47351000 10.84900000  9.52775000
   7.57089000 13.51410000  0.54061400
  10.20620000  5.80158000 11.39130000
   7.29281000  8.61755000 12.10740000
   5.24707000 11.81600000  3.29620000
   8.76904000  5.83824000  7.80693000
  10.74830000  0.74175800  3.12264000
  11.57810000  3.77395000 11.19640000
  15.83814544  5.66269000  5.87530000
   3.43547000  1.06818000  0.62366200
  16.14750000 12.21670000  9.26093000
   2.84074000 10.55130000 12.16740000
   1.12473000  7.46920000  1.48313000
   2.52411000  7.64257000  7.85602000
  15.45050000  9.41642000  3.67288000
  11.80520000  5.01674000  8.54992000
  15.59710000  2.24253000 12.19010000
   9.81193000  3.32628000  7.12082000
   9.00838000 -0.52912600  8.20921000
  12.66820000 10.24430000  3.37904000
  12.73420000 12.59850000  0.46695700
  17.07869814  4.41455000  8.92023000
   2.26040000  0.59706500  6.54025000
   6.03113000  2.12198000  3.71318000
  13.26870000  2.88586000  6.35351000
   7.13984000  6.32689000  2.67005000
  10.78580000  5.83852000  2.25386000
   5.70719000  3.17233000  9.46132000
  11.86900000  0.02808880  9.30223000
  16.35682556 -0.78966449 12.12040000
   5.71476000  2.44510000  0.80311800
   4.50819000  8.14618000 11.69110000
  14.02170000  4.76603000 11.96170000
  10.12470000 10.15700000 11.55180000
   7.90378000 12.94190000  3.27664000
   5.01407000  5.20198000  4.12303000
   1.73866000 12.13430000  2.45205000
  12.41570000  2.95184000  3.53866000
   9.51233000  8.20144000  1.01513000
   3.41491000  0.66196100  3.54694000
  14.71750000  6.72926000  3.32100000
   8.59357000  3.91620000  1.44761000
   5.45710000  9.11520000  2.86597000
  13.50830000 12.98270000  3.27529000
   1.92861000  4.21081000 11.61250000
  10.87760000  1.55464000  0.29993400
   7.70556000  5.55193000 12.03320000
   5.04285000 12.36510000  0.01612020
  15.35718814  9.48162000  0.90228900
  16.16000000 13.02080000  6.29336000
   5.33737000  1.71324000  7.00034000
   2.11265000  7.49792000  5.11651000
  12.99940000  5.91113000  6.18345000
   9.87813000 10.65940000  6.54720000
   5.49042000 -0.27506100  9.14203000
   5.94132000  5.87563000  8.46772000
   2.34314000 10.47870000  8.71125000
  15.41600000  1.76981000  9.35685000
   9.92121000  7.58444000  9.28077000
   2.62077000  0.35447400  9.31212000
  15.91490000  6.88483000  8.65280000
   8.66094000  2.96474000  9.61872000
   6.69223000  8.74365000  9.27198000
  13.50630000 11.15380000  9.68401000
  16.15091314  2.82622000  5.47581000
  11.26810000  0.37034100  6.47399000
   8.28152000  7.35236000  5.50348000
   4.83973000 12.01300000  6.08136000
  12.40660000  9.46401000  6.24071000
 


--------------------------------------------------------------------------------------------------------


 k-point  1 :   0.2500 0.2500 0.2500  plane waves:   23903
 k-point  2 :  -0.2500 0.2500 0.2500  plane waves:   23892
 k-point  3 :   0.2500-0.2500 0.2500  plane waves:   23867
 k-point  4 :  -0.2500-0.2500 0.2500  plane waves:   23872

 maximum and minimum number of plane-waves per node :      6000     5954

 maximum number of plane-waves:     23903
 maximum index in each direction: 
   IXMAX=   20   IYMAX=   17   IZMAX=   15
   IXMIN=  -20   IYMIN=  -17   IZMIN=  -16


 real space projection operators:
  total allocation   :      21974.98 KBytes
  max/ min on nodes  :       5509.05       5486.10


 parallel 3D FFT for wavefunctions:
    minimum data exchange during FFTs selected (reduces bandwidth)
 parallel 3D FFT for charge:
    minimum data exchange during FFTs selected (reduces bandwidth)


 total amount of memory used by VASP MPI-rank0    84873. kBytes
=======================================================================

   base      :      30000. kBytes
   nonlr-proj:       5583. kBytes
   fftplans  :       9446. kBytes
   grid      :      16550. kBytes
   one-center:        146. kBytes
   wavefun   :      23148. kBytes
 
     INWAV:  cpu time    0.0001: real time    0.0001
 Broyden mixing: mesh for mixing (old mesh)
   NGX = 41   NGY = 35   NGZ = 31
  (NGX  =168   NGY  =140   NGZ  =128)
  gives a total of  44485 points

 initial charge density was supplied:
 charge density of overlapping atoms calculated
 number of electron     384.0000000 magnetization 
 keeping initial charge density in first step


--------------------------------------------------------------------------------------------------------


 Maximum index for non-local projection operator          780
 Maximum index for augmentation-charges          818 (set IRDMAX)


--------------------------------------------------------------------------------------------------------


 First call to EWALD:  gamma=   0.128
 Maximum number of real-space cells 2x 3x 3
 Maximum number of reciprocal cells 3x 3x 3

    FEWALD:  cpu time    0.0093: real time    0.0093


--------------------------------------- Iteration      1(   1)  ---------------------------------------


    POTLOK:  cpu time    0.2292: real time    0.2436
    SETDIJ:  cpu time    0.0304: real time    0.0306
     EDDAV:  cpu time    3.4450: real time    3.4512
       DOS:  cpu time    0.0034: real time    0.0039
    --------------------------------------------
      LOOP:  cpu time    3.7082: real time    3.7295

 eigenvalue-minimisations  :  1856
 total energy-change (2. order) : 0.1396850E+04  (-0.8862491E+04)
 number of electron     384.0000000 magnetization 
 augmentation part      384.0000000 magnetization 

 Free energy of the ion-electron system (eV)
  ---------------------------------------------------
  alpha Z        PSCENC =       107.79761389
  Ewald energy   TEWEN  =    -11468.64767043
  -Hartree energ DENC   =     -1999.32740981
  -exchange      EXHF   =         0.00000000
  -V(xc)+E(xc)   XCENC  =     -1988.45675602
  PAW double counting   =     12338.96171541    -9704.48084717
  entropy T*S    EENTRO =        -0.03390547
  eigenvalues    EBANDS =      1101.17931888
  atomic energy  EATOM  =     13009.85829969
  Solvation  Ediel_sol  =         0.00000000
  ---------------------------------------------------
  free energy    TOTEN  =      1396.85035898 eV

  energy without entropy =     1396.88426445  energy(sigma->0) =     1396.86731172


--------------------------------------------------------------------------------------------------------




--------------------------------------- Iteration      1(   2)  ---------------------------------------


     EDDAV:  cpu time    3.8581: real time    3.8911
       DOS:  cpu time    0.0020: real time    0.0020
    --------------------------------------------
      LOOP:  cpu time    3.8600: real time    3.8931

 eigenvalue-minimisations  :  2200
 total energy-change (2. order) :-0.1497111E+04  (-0.1446252E+04)
 number of electron     384.0000000 magnetization 
 augmentation part      384.0000000 magnetization 

 Free energy of the ion-electron system (eV)
  ---------------------------------------------------
  alpha Z        PSCENC =       107.79761389
  Ewald energy   TEWEN  =    -11468.64767043
  -Hartree energ DENC   =     -1999.32740981
  -exchange      EXHF   =         0.00000000
  -V(xc)+E(xc)   XCENC  =     -1988.45675602
  PAW double counting   =     12338.96171541    -9704.48084717
  entropy T*S    EENTRO =        -0.01067049
  eigenvalues    EBANDS =      -395.95456511
  atomic energy  EATOM  =     13009.85829969
  Solvation  Ediel_sol  =         0.00000000
  ---------------------------------------------------
  free energy    TOTEN  =      -100.26029004 eV

  energy without entropy =     -100.24961955  energy(sigma->0) =     -100.25495479


--------------------------------------------------------------------------------------------------------




--------------------------------------- Iteration      1(   3)  ---------------------------------------


     EDDAV:  cpu time    3.8616: real time    3.8933
       DOS:  cpu time    0.0018: real time    0.0018
    --------------------------------------------
      LOOP:  cpu time    3.8634: real time    3.8951

 eigenvalue-minimisations  :  2192
 total energy-change (2. order) :-0.1505310E+03  (-0.1465696E+03)
 number of electron     384.0000000 magnetization 
 augmentation part      384.0000000 magnetization 

 Free energy of the ion-electron system (eV)
  ---------------------------------------------------
  alpha Z        PSCENC =       107.79761389
  Ewald energy   TEWEN  =    -11468.64767043
  -Hartree energ DENC   =     -1999.32740981
  -exchange      EXHF   =         0.00000000
  -V(xc)+E(xc)   XCENC  =     -1988.45675602
  PAW double counting   =     12338.96171541    -9704.48084717
  entropy T*S    EENTRO =        -0.00000001
  eigenvalues    EBANDS =      -546.49619018
  atomic energy  EATOM  =     13009.85829969
  Solvation  Ediel_sol  =         0.00000000
  ---------------------------------------------------
  free energy    TOTEN  =      -250.79124462 eV

  energy without entropy =     -250.79124461  energy(sigma->0) =     -250.79124461


--------------------------------------------------------------------------------------------------------




--------------------------------------- Iteration      1(   4)  ---------------------------------------


     EDDAV:  cpu time    4.4607: real time    4.4934
       DOS:  cpu time    0.0016: real time    0.0016
    --------------------------------------------
      LOOP:  cpu time    4.4623: real time    4.4950

 eigenvalue-minimisations  :  2616
 total energy-change (2. order) :-0.7744419E+01  (-0.7655852E+01)
 number of electron     384.0000000 magnetization 
 augmentation part      384.0000000 magnetization 

 Free energy of the ion-electron system (eV)
  ---------------------------------------------------
  alpha Z        PSCENC =       107.79761389
  Ewald energy   TEWEN  =    -11468.64767043
  -Hartree energ DENC   =     -1999.32740981
  -exchange      EXHF   =         0.00000000
  -V(xc)+E(xc)   XCENC  =     -1988.45675602
  PAW double counting   =     12338.96171541    -9704.48084717
  entropy T*S    EENTRO =        -0.00000000
  eigenvalues    EBANDS =      -554.24060957
  atomic energy  EATOM  =     13009.85829969
  Solvation  Ediel_sol  =         0.00000000
  ---------------------------------------------------
  free energy    TOTEN  =      -258.53566401 eV

  energy without entropy =     -258.53566400  energy(sigma->0) =     -258.53566400


--------------------------------------------------------------------------------------------------------




--------------------------------------- Iteration      1(   5)  ---------------------------------------


     EDDAV:  cpu time    4.1846: real time    4.1902
       DOS:  cpu time    0.0015: real time    0.0015
    CHARGE:  cpu time    0.2355: real time    0.2362
    MIXING:  cpu time    0.0195: real time    0.0207
    --------------------------------------------
      LOOP:  cpu time    4.4411: real time    4.4486

 eigenvalue-minimisations  :  2376
 total energy-change (2. order) :-0.2221629E+00  (-0.2209923E+00)
 number of electron     384.0000000 magnetization 
 augmentation part      -72.3002067 magnetization 

 Broyden mixing:
  rms(total) = 0.34123E+01    rms(broyden)= 0.34122E+01
  rms(prec ) = 0.34905E+01
  weight for this iteration     100.00

 Free energy of the ion-electron system (eV)
  ---------------------------------------------------
  alpha Z        PSCENC =       107.79761389
  Ewald energy   TEWEN  =    -11468.64767043
  -Hartree energ DENC   =     -1999.32740981
  -exchange      EXHF   =         0.00000000
  -V(xc)+E(xc)   XCENC  =     -1988.45675602
  PAW double counting   =     12338.96171541    -9704.48084717
  entropy T*S    EENTRO =        -0.00000000
  eigenvalues    EBANDS =      -554.46277243
  atomic energy  EATOM  =     13009.85829969
  Solvation  Ediel_sol  =         0.00000000
  ---------------------------------------------------
  free energy    TOTEN  =      -258.75782687 eV

  energy without entropy =     -258.75782687  energy(sigma->0) =     -258.75782687


--------------------------------------------------------------------------------------------------------




--------------------------------------- Iteration      1(   6)  ---------------------------------------


    POTLOK:  cpu time    0.2133: real time    0.2391
    SETDIJ:  cpu time    0.0251: real time    0.0251
    EDDIAG:  cpu time    0.5588: real time    0.5592
  RMM-DIIS:  cpu time    2.1376: real time    2.1409
    ORTHCH:  cpu time    0.0667: real time    0.0667
       DOS:  cpu time    0.0019: real time    0.0019
    CHARGE:  cpu time    0.2379: real time    0.2386
    MIXING:  cpu time    0.0168: real time    0.0169
    --------------------------------------------
      LOOP:  cpu time    3.2582: real time    3.2885

 eigenvalue-minimisations  :  2008
 total energy-change (2. order) : 0.2638679E+01  (-0.6473637E+00)
 number of electron     384.0000000 magnetization 
 augmentation part      -72.0038415 magnetization 

 Broyden mixing:
  rms(total) = 0.20636E+01    rms(broyden)= 0.20636E+01
  rms(prec ) = 0.20840E+01
  weight for this iteration     100.00

 eigenvalues of (default mixing * dielectric matrix)
  average eigenvalue GAMMA=   2.4226
  2.4226

 Free energy of the ion-electron system (eV)
  ---------------------------------------------------
  alpha Z        PSCENC =       107.79761389
  Ewald energy   TEWEN  =    -11468.64767043
  -Hartree energ DENC   =     -2022.93531086
  -exchange      EXHF   =         0.00000000
  -V(xc)+E(xc)   XCENC  =     -1985.50460876
  PAW double counting   =     16583.47836685   -13950.93884769
  entropy T*S    EENTRO =        -0.00198267
  eigenvalues    EBANDS =      -529.22500793
  atomic energy  EATOM  =     13009.85829969
  Solvation  Ediel_sol  =         0.00000000
  ---------------------------------------------------
  free energy    TOTEN  =      -256.11914793 eV

  energy without entropy =     -256.11716525  energy(sigma->0) =     -256.11815659


--------------------------------------------------------------------------------------------------------




--------------------------------------- Iteration      1(   7)  ---------------------------------------


    POTLOK:  cpu time    0.2085: real time    0.2363
    SETDIJ:  cpu time    0.0248: real time    0.0248
    EDDIAG:  cpu time    0.5334: real time    0.5344
  RMM-DIIS:  cpu time    2.2965: real time    2.3098
    ORTHCH:  cpu time    0.0610: real time    0.0610
       DOS:  cpu time    0.0019: real time    0.0019
    CHARGE:  cpu time    0.2369: real time    0.2379
    MIXING:  cpu time    0.0148: real time    0.0149
    --------------------------------------------
      LOOP:  cpu time    3.3778: real time    3.4209

 eigenvalue-minimisations  :  2177
 total energy-change (2. order) : 0.1484200E+00  (-0.3332272E+00)
 number of electron     384.0000000 magnetization 
 augmentation part      -71.8971154 magnetization 

 Broyden mixing:
  rms(total) = 0.30356E+00    rms(broyden)= 0.30356E+00
  rms(prec ) = 0.33498E+00
  weight for this iteration     100.00

 eigenvalues of (default mixing * dielectric matrix)
  average eigenvalue GAMMA=   1.8137
  1.0993  2.5281

 Free energy of the ion-electron system (eV)
  ---------------------------------------------------
  alpha Z        PSCENC =       107.79761389
  Ewald energy   TEWEN  =    -11468.64767043
  -Hartree energ DENC   =     -2047.78985522
  -exchange      EXHF   =         0.00000000
  -V(xc)+E(xc)   XCENC  =     -1981.64743255
  PAW double counting   =     23795.37251777   -21164.83707317
  entropy T*S    EENTRO =        -0.00316734
  eigenvalues    EBANDS =      -506.07396052
  atomic energy  EATOM  =     13009.85829969
  Solvation  Ediel_sol  =         0.00000000
  ---------------------------------------------------
  free energy    TOTEN  =      -255.97072789 eV

  energy without entropy =     -255.96756055  energy(sigma->0) =     -255.96914422


--------------------------------------------------------------------------------------------------------




--------------------------------------- Iteration      1(   8)  ---------------------------------------


    POTLOK:  cpu time    0.1837: real time    0.2092
    SETDIJ:  cpu time    0.0240: real time    0.0240
    EDDIAG:  cpu time    0.5246: real time    0.5255
  RMM-DIIS:  cpu time    2.4076: real time    2.4096
    ORTHCH:  cpu time    0.0603: real time    0.0603
       DOS:  cpu time    0.0024: real time    0.0024
    CHARGE:  cpu time    0.2368: real time    0.2377
    MIXING:  cpu time    0.0141: real time    0.0140
    --------------------------------------------
      LOOP:  cpu time    3.4534: real time    3.4827

 eigenvalue-minimisations  :  2272
 total energy-change (2. order) : 0.7768894E-01  (-0.3543336E-01)
 number of electron     384.0000000 magnetization 
 augmentation part      -71.9277789 magnetization 

 Broyden mixing:
  rms(total) = 0.91830E-01    rms(broyden)= 0.91828E-01
  rms(prec ) = 0.10838E+00
  weight for this iteration     100.00

 eigenvalues of (default mixing * dielectric matrix)
  average eigenvalue GAMMA=   1.5486
  2.5465  1.2645  0.8347

 Free energy of the ion-electron system (eV)
  ---------------------------------------------------
  alpha Z        PSCENC =       107.79761389
  Ewald energy   TEWEN  =    -11468.64767043
  -Hartree energ DENC   =     -2050.43513590
  -exchange      EXHF   =         0.00000000
  -V(xc)+E(xc)   XCENC  =     -1981.11404776
  PAW double counting   =     24846.90514393   -22216.47827879
  entropy T*S    EENTRO =        -0.00361968
  eigenvalues    EBANDS =      -503.77534388
  atomic energy  EATOM  =     13009.85829969
  Solvation  Ediel_sol  =         0.00000000
  ---------------------------------------------------
  free energy    TOTEN  =      -255.89303894 eV

  energy without entropy =     -255.88941926  energy(sigma->0) =     -255.89122910


--------------------------------------------------------------------------------------------------------




--------------------------------------- Iteration      1(   9)  ---------------------------------------


    POTLOK:  cpu time    0.1831: real time    0.2093
    SETDIJ:  cpu time    0.0244: real time    0.0244
    EDDIAG:  cpu time    0.5266: real time    0.5266
  RMM-DIIS:  cpu time    2.2971: real time    2.3001
    ORTHCH:  cpu time    0.0605: real time    0.0605
       DOS:  cpu time    0.0018: real time    0.0018
    CHARGE:  cpu time    0.2367: real time    0.2368
    MIXING:  cpu time    0.0141: real time    0.0142
    --------------------------------------------
      LOOP:  cpu time    3.3444: real time    3.3737

 eigenvalue-minimisations  :  2187
 total energy-change (2. order) : 0.1016786E-01  (-0.5400262E-02)
 number of electron     384.0000000 magnetization 
 augmentation part      -71.9539675 magnetization 

 Broyden mixing:
  rms(total) = 0.48429E-01    rms(broyden)= 0.48428E-01
  rms(prec ) = 0.51194E-01
  weight for this iteration     100.00

 eigenvalues of (default mixing * dielectric matrix)
  average eigenvalue GAMMA=   1.6348
  2.5955  1.7777  1.3667  0.7994

 Free energy of the ion-electron system (eV)
  ---------------------------------------------------
  alpha Z        PSCENC =       107.79761389
  Ewald energy   TEWEN  =    -11468.64767043
  -Hartree energ DENC   =     -2050.56375005
  -exchange      EXHF   =         0.00000000
  -V(xc)+E(xc)   XCENC  =     -1981.02794892
  PAW double counting   =     24935.64077917   -22305.15444980
  entropy T*S    EENTRO =        -0.00218985
  eigenvalues    EBANDS =      -503.78355478
  atomic energy  EATOM  =     13009.85829969
  Solvation  Ediel_sol  =         0.00000000
  ---------------------------------------------------
  free energy    TOTEN  =      -255.88287108 eV

  energy without entropy =     -255.88068124  energy(sigma->0) =     -255.88177616


--------------------------------------------------------------------------------------------------------




--------------------------------------- Iteration      1(  10)  ---------------------------------------


    POTLOK:  cpu time    0.2140: real time    0.2151
    SETDIJ:  cpu time    0.0242: real time    0.0242
    EDDIAG:  cpu time    0.5329: real time    0.5330
  RMM-DIIS:  cpu time    2.3615: real time    2.3645
    ORTHCH:  cpu time    0.0600: real time    0.0600
       DOS:  cpu time    0.0022: real time    0.0022
    CHARGE:  cpu time    0.2377: real time    0.2377
    MIXING:  cpu time    0.0146: real time    0.0146
    --------------------------------------------
      LOOP:  cpu time    3.4470: real time    3.4512

 eigenvalue-minimisations  :  2235
 total energy-change (2. order) :-0.3039382E-02  (-0.1246582E-02)
 number of electron     384.0000000 magnetization 
 augmentation part      -71.9565431 magnetization 

 Broyden mixing:
  rms(total) = 0.18785E-01    rms(broyden)= 0.18785E-01
  rms(prec ) = 0.20675E-01
  weight for this iteration     100.00

 eigenvalues of (default mixing * dielectric matrix)
  average eigenvalue GAMMA=   1.6249
  2.5902  2.2366  0.7942  1.2988  1.2049

 Free energy of the ion-electron system (eV)
  ---------------------------------------------------
  alpha Z        PSCENC =       107.79761389
  Ewald energy   TEWEN  =    -11468.64767043
  -Hartree energ DENC   =     -2051.47036778
  -exchange      EXHF   =         0.00000000
  -V(xc)+E(xc)   XCENC  =     -1980.93346959
  PAW double counting   =     24951.71034036   -22321.18206086
  entropy T*S    EENTRO =        -0.00249734
  eigenvalues    EBANDS =      -503.01609840
  atomic energy  EATOM  =     13009.85829969
  Solvation  Ediel_sol  =         0.00000000
  ---------------------------------------------------
  free energy    TOTEN  =      -255.88591047 eV

  energy without entropy =     -255.88341312  energy(sigma->0) =     -255.88466179


--------------------------------------------------------------------------------------------------------




--------------------------------------- Iteration      1(  11)  ---------------------------------------


    POTLOK:  cpu time    0.1833: real time    0.2114
    SETDIJ:  cpu time    0.0247: real time    0.0247
    EDDIAG:  cpu time    0.5311: real time    0.5321
  RMM-DIIS:  cpu time    2.3211: real time    2.3241
    ORTHCH:  cpu time    0.0602: real time    0.0602
       DOS:  cpu time    0.0018: real time    0.0019
    CHARGE:  cpu time    0.2388: real time    0.2389
    MIXING:  cpu time    0.0147: real time    0.0147
    --------------------------------------------
      LOOP:  cpu time    3.3757: real time    3.4080

 eigenvalue-minimisations  :  2205
 total energy-change (2. order) :-0.1181069E-02  (-0.2359946E-03)
 number of electron     384.0000000 magnetization 
 augmentation part      -71.9582650 magnetization 

 Broyden mixing:
  rms(total) = 0.65609E-02    rms(broyden)= 0.65608E-02
  rms(prec ) = 0.78565E-02
  weight for this iteration     100.00

 eigenvalues of (default mixing * dielectric matrix)
  average eigenvalue GAMMA=   1.5760
  2.5741  2.3620  1.5707  1.0821  1.0821  0.7848

 Free energy of the ion-electron system (eV)
  ---------------------------------------------------
  alpha Z        PSCENC =       107.79761389
  Ewald energy   TEWEN  =    -11468.64767043
  -Hartree energ DENC   =     -2052.06678078
  -exchange      EXHF   =         0.00000000
  -V(xc)+E(xc)   XCENC  =     -1980.88941972
  PAW double counting   =     24934.14268657   -22303.58874186
  entropy T*S    EENTRO =        -0.00223149
  eigenvalues    EBANDS =      -502.49084740
  atomic energy  EATOM  =     13009.85829969
  Solvation  Ediel_sol  =         0.00000000
  ---------------------------------------------------
  free energy    TOTEN  =      -255.88709153 eV

  energy without entropy =     -255.88486005  energy(sigma->0) =     -255.88597579


--------------------------------------------------------------------------------------------------------




--------------------------------------- Iteration      1(  12)  ---------------------------------------


    POTLOK:  cpu time    0.1837: real time    0.2131
    SETDIJ:  cpu time    0.0240: real time    0.0240
    EDDIAG:  cpu time    0.5265: real time    0.5275
  RMM-DIIS:  cpu time    2.4500: real time    2.4522
    ORTHCH:  cpu time    0.0594: real time    0.0604
       DOS:  cpu time    0.0019: real time    0.0019
    CHARGE:  cpu time    0.2390: real time    0.2390
    MIXING:  cpu time    0.0148: real time    0.0148
    --------------------------------------------
      LOOP:  cpu time    3.4993: real time    3.5327

 eigenvalue-minimisations  :  2327
 total energy-change (2. order) :-0.2962864E-03  (-0.6230122E-04)
 number of electron     384.0000000 magnetization 
 augmentation part      -71.9572535 magnetization 

 Broyden mixing:
  rms(total) = 0.35199E-02    rms(broyden)= 0.35199E-02
  rms(prec ) = 0.42451E-02
  weight for this iteration     100.00

 eigenvalues of (default mixing * dielectric matrix)
  average eigenvalue GAMMA=   1.6300
  2.7196  2.6261  1.9036  1.3827  1.0773  0.9212  0.7794

 Free energy of the ion-electron system (eV)
  ---------------------------------------------------
  alpha Z        PSCENC =       107.79761389
  Ewald energy   TEWEN  =    -11468.64767043
  -Hartree energ DENC   =     -2052.39014514
  -exchange      EXHF   =         0.00000000
  -V(xc)+E(xc)   XCENC  =     -1980.86907418
  PAW double counting   =     24928.54208853   -22297.98269648
  entropy T*S    EENTRO =        -0.00230898
  eigenvalues    EBANDS =      -502.19349471
  atomic energy  EATOM  =     13009.85829969
  Solvation  Ediel_sol  =         0.00000000
  ---------------------------------------------------
  free energy    TOTEN  =      -255.88738782 eV

  energy without entropy =     -255.88507884  energy(sigma->0) =     -255.88623333


--------------------------------------------------------------------------------------------------------




--------------------------------------- Iteration      1(  13)  ---------------------------------------


    POTLOK:  cpu time    0.1824: real time    0.2125
    SETDIJ:  cpu time    0.0239: real time    0.0239
    EDDIAG:  cpu time    0.5241: real time    0.5251
  RMM-DIIS:  cpu time    2.2804: real time    2.2826
    ORTHCH:  cpu time    0.0603: real time    0.0603
       DOS:  cpu time    0.0022: real time    0.0022
    CHARGE:  cpu time    0.2374: real time    0.2382
    MIXING:  cpu time    0.0148: real time    0.0148
    --------------------------------------------
      LOOP:  cpu time    3.3255: real time    3.3596

 eigenvalue-minimisations  :  2152
 total energy-change (2. order) :-0.1525142E-03  (-0.2072380E-04)
 number of electron     384.0000000 magnetization 
 augmentation part      -71.9565777 magnetization 

 Broyden mixing:
  rms(total) = 0.13051E-02    rms(broyden)= 0.13051E-02
  rms(prec ) = 0.16821E-02
  weight for this iteration     100.00

 eigenvalues of (default mixing * dielectric matrix)
  average eigenvalue GAMMA=   1.6164
  2.6995  2.6995  2.1256  1.5079  1.1596  0.7753  1.0104  0.9537

 Free energy of the ion-electron system (eV)
  ---------------------------------------------------
  alpha Z        PSCENC =       107.79761389
  Ewald energy   TEWEN  =    -11468.64767043
  -Hartree energ DENC   =     -2052.66015847
  -exchange      EXHF   =         0.00000000
  -V(xc)+E(xc)   XCENC  =     -1980.85184991
  PAW double counting   =     24925.17681547   -22294.61333901
  entropy T*S    EENTRO =        -0.00229694
  eigenvalues    EBANDS =      -501.94495462
  atomic energy  EATOM  =     13009.85829969
  Solvation  Ediel_sol  =         0.00000000
  ---------------------------------------------------
  free energy    TOTEN  =      -255.88754034 eV

  energy without entropy =     -255.88524340  energy(sigma->0) =     -255.88639187


--------------------------------------------------------------------------------------------------------




--------------------------------------- Iteration      1(  14)  ---------------------------------------


    POTLOK:  cpu time    0.1826: real time    0.2086
    SETDIJ:  cpu time    0.0244: real time    0.0244
    EDDIAG:  cpu time    0.5283: real time    0.5283
  RMM-DIIS:  cpu time    2.3805: real time    2.3843
    ORTHCH:  cpu time    0.0601: real time    0.0601
       DOS:  cpu time    0.0019: real time    0.0019
    CHARGE:  cpu time    0.2388: real time    0.2388
    MIXING:  cpu time    0.0151: real time    0.0150
    --------------------------------------------
      LOOP:  cpu time    3.4316: real time    3.4614

 eigenvalue-minimisations  :  2248
 total energy-change (2. order) :-0.3344564E-04  (-0.6135577E-05)
 number of electron     384.0000000 magnetization 
 augmentation part      -71.9562152 magnetization 

 Broyden mixing:
  rms(total) = 0.63932E-03    rms(broyden)= 0.63930E-03
  rms(prec ) = 0.84320E-03
  weight for this iteration     100.00

 eigenvalues of (default mixing * dielectric matrix)
  average eigenvalue GAMMA=   1.7066
  3.4595  2.6974  2.2391  1.8166  1.2320  1.2320  0.7746  0.9541  0.9541

 Free energy of the ion-electron system (eV)
  ---------------------------------------------------
  alpha Z        PSCENC =       107.79761389
  Ewald energy   TEWEN  =    -11468.64767043
  -Hartree energ DENC   =     -2052.76251114
  -exchange      EXHF   =         0.00000000
  -V(xc)+E(xc)   XCENC  =     -1980.84502777
  PAW double counting   =     24924.56254415   -22293.99822574
  entropy T*S    EENTRO =        -0.00229520
  eigenvalues    EBANDS =      -501.85030123
  atomic energy  EATOM  =     13009.85829969
  Solvation  Ediel_sol  =         0.00000000
  ---------------------------------------------------
  free energy    TOTEN  =      -255.88757378 eV

  energy without entropy =     -255.88527858  energy(sigma->0) =     -255.88642618


--------------------------------------------------------------------------------------------------------




--------------------------------------- Iteration      1(  15)  ---------------------------------------


    POTLOK:  cpu time    0.1836: real time    0.2159
    SETDIJ:  cpu time    0.0241: real time    0.0241
    EDDIAG:  cpu time    0.5339: real time    0.5341
  RMM-DIIS:  cpu time    2.1091: real time    2.1121
    ORTHCH:  cpu time    0.0601: real time    0.0601
       DOS:  cpu time    0.0022: real time    0.0022
    CHARGE:  cpu time    0.2394: real time    0.2394
    MIXING:  cpu time    0.0157: real time    0.0157
    --------------------------------------------
      LOOP:  cpu time    3.1682: real time    3.2037

 eigenvalue-minimisations  :  1987
 total energy-change (2. order) :-0.1042081E-04  (-0.2267502E-05)
 number of electron     384.0000000 magnetization 
 augmentation part      -71.9559905 magnetization 

 Broyden mixing:
  rms(total) = 0.25326E-03    rms(broyden)= 0.25326E-03
  rms(prec ) = 0.30311E-03
  weight for this iteration     100.00

 eigenvalues of (default mixing * dielectric matrix)
  average eigenvalue GAMMA=   1.6684
  3.3106  2.6879  2.2686  2.0627  1.3134  1.3134  1.1086  0.7728  0.9230  0.9230

 Free energy of the ion-electron system (eV)
  ---------------------------------------------------
  alpha Z        PSCENC =       107.79761389
  Ewald energy   TEWEN  =    -11468.64767043
  -Hartree energ DENC   =     -2052.83785657
  -exchange      EXHF   =         0.00000000
  -V(xc)+E(xc)   XCENC  =     -1980.83932655
  PAW double counting   =     24924.70839409   -22294.14315398
  entropy T*S    EENTRO =        -0.00229192
  eigenvalues    EBANDS =      -501.78159241
  atomic energy  EATOM  =     13009.85829969
  Solvation  Ediel_sol  =         0.00000000
  ---------------------------------------------------
  free energy    TOTEN  =      -255.88758420 eV

  energy without entropy =     -255.88529228  energy(sigma->0) =     -255.88643824


--------------------------------------------------------------------------------------------------------




--------------------------------------- Iteration      1(  16)  ---------------------------------------


    POTLOK:  cpu time    0.2079: real time    0.2081
    SETDIJ:  cpu time    0.0241: real time    0.0241
    EDDIAG:  cpu time    0.5287: real time    0.5296
  RMM-DIIS:  cpu time    1.8960: real time    1.8980
    ORTHCH:  cpu time    0.0601: real time    0.0601
       DOS:  cpu time    0.0019: real time    0.0019
    CHARGE:  cpu time    0.2408: real time    0.2408
    MIXING:  cpu time    0.0158: real time    0.0158
    --------------------------------------------
      LOOP:  cpu time    2.9753: real time    2.9784

 eigenvalue-minimisations  :  1711
 total energy-change (2. order) :-0.1661514E-05  (-0.5757417E-06)
 number of electron     384.0000000 magnetization 
 augmentation part      -71.9559745 magnetization 

 Broyden mixing:
  rms(total) = 0.13583E-03    rms(broyden)= 0.13582E-03
  rms(prec ) = 0.16763E-03
  weight for this iteration     100.00

 eigenvalues of (default mixing * dielectric matrix)
  average eigenvalue GAMMA=   1.7177
  3.8777  2.7529  2.3217  2.3217  1.4650  1.4650  1.0713  1.0713  0.7711  0.8885
  0.8885

 Free energy of the ion-electron system (eV)
  ---------------------------------------------------
  alpha Z        PSCENC =       107.79761389
  Ewald energy   TEWEN  =    -11468.64767043
  -Hartree energ DENC   =     -2052.84478118
  -exchange      EXHF   =         0.00000000
  -V(xc)+E(xc)   XCENC  =     -1980.83867040
  PAW double counting   =     24925.12711675   -22294.56184500
  entropy T*S    EENTRO =        -0.00229351
  eigenvalues    EBANDS =      -501.77535567
  atomic energy  EATOM  =     13009.85829969
  Solvation  Ediel_sol  =         0.00000000
  ---------------------------------------------------
  free energy    TOTEN  =      -255.88758586 eV

  energy without entropy =     -255.88529235  energy(sigma->0) =     -255.88643911


--------------------------------------------------------------------------------------------------------




--------------------------------------- Iteration      1(  17)  ---------------------------------------


    POTLOK:  cpu time    0.2098: real time    0.2100
    SETDIJ:  cpu time    0.0239: real time    0.0247
    EDDIAG:  cpu time    0.5228: real time    0.5229
  RMM-DIIS:  cpu time    1.5308: real time    1.5329
    ORTHCH:  cpu time    0.0514: real time    0.2508
       DOS:  cpu time    0.0018: real time    0.0018
    --------------------------------------------
      LOOP:  cpu time    2.3405: real time    2.5430

 eigenvalue-minimisations  :  1354
 total energy-change (2. order) :-0.3468303E-06  (-0.8227417E-07)
 number of electron     384.0000000 magnetization 
 augmentation part      -71.9559745 magnetization 

 Free energy of the ion-electron system (eV)
  ---------------------------------------------------
  alpha Z        PSCENC =       107.79761389
  Ewald energy   TEWEN  =    -11468.64767043
  -Hartree energ DENC   =     -2052.85322357
  -exchange      EXHF   =         0.00000000
  -V(xc)+E(xc)   XCENC  =     -1980.83802824
  PAW double counting   =     24925.16042400   -22294.59500315
  entropy T*S    EENTRO =        -0.00229195
  eigenvalues    EBANDS =      -501.76770645
  atomic energy  EATOM  =     13009.85829969
  Solvation  Ediel_sol  =         0.00000000
  ---------------------------------------------------
  free energy    TOTEN  =      -255.88758621 eV

  energy without entropy =     -255.88529426  energy(sigma->0) =     -255.88644024


--------------------------------------------------------------------------------------------------------




 average (electrostatic) potential at core
  the test charge radii are     1.1631  1.1712  1.1897
  (the norm of the test charge is              1.0000)
       1 -33.0246       2 -33.0372       3 -32.9244       4 -33.0406       5 -32.7789
       6 -33.1931       7 -32.8502       8 -32.6938       9 -33.1247      10 -32.9938
      11 -32.9790      12 -32.9555      13 -32.6845      14 -33.0150      15 -32.9355
      16 -33.0872      17 -89.2253      18 -89.4211      19 -89.2902      20 -89.5750
      21 -89.3461      22 -89.2427      23 -89.1958      24 -89.4567      25 -89.3128
      26 -89.4561      27 -89.3787      28 -89.5204      29 -89.4562      30 -89.5476
      31 -89.5200      32 -89.4163      33 -90.5856      34 -90.4273      35 -90.3961
      36 -90.8605      37 -90.0559      38 -90.1489      39 -90.5322      40 -90.3342
      41 -90.2975      42 -90.4548      43 -90.4612      44 -90.4511      45 -90.7892
      46 -90.3231      47 -90.7812      48 -90.3278      49 -90.6455      50 -90.4612
      51 -90.3907      52 -90.9089      53 -90.3995      54 -90.8851      55 -90.1263
      56 -90.7148      57 -90.6861      58 -91.0134      59 -90.7647      60 -90.4940
      61 -90.7852      62 -91.1113      63 -90.7192      64 -90.7298      65 -90.8437
      66 -90.3795      67 -90.5238      68 -90.2554      69 -90.5368      70 -90.1806
      71 -90.3801      72 -90.7436
 
 
 
 E-fermi :   4.0211     XC(G=0):  -8.1951     alpha+bet : -8.7878


 k-point     1 :       0.2500    0.2500    0.2500
  band No.  band energies     occupation 
      1      -9.0012      2.00000
      2      -8.9100      2.00000
      3      -8.8053      2.00000
      4      -8.5863      2.00000
      5      -8.5397      2.00000
      6      -8.4857      2.00000
      7      -8.3263      2.00000
      8      -8.2845      2.00000
      9      -8.1813      2.00000
     10      -8.1121      2.00000
     11      -8.0426      2.00000
     12      -7.9581      2.00000
     13      -7.8966      2.00000
     14      -7.8281      2.00000
     15      -7.7707      2.00000
     16      -7.7196      2.00000
     17      -7.5738      2.00000
     18      -7.5367      2.00000
     19      -7.4921      2.00000
     20      -7.4136      2.00000
     21      -7.3669      2.00000
     22      -7.2983      2.00000
     23      -7.2233      2.00000
     24      -7.1660      2.00000
[...]
    FORCOR:  cpu time    0.4649: real time    4.8663
    FORHAR:  cpu time    0.3532: real time    0.3542
    MIXING:  cpu time    0.0179: real time    0.0180
    OFIELD:  cpu time    0.0002: real time    0.0004

  FORCE on cell =-STRESS in cart. coord.  units (eV):
  Direction    XX          YY          ZZ          XY          YZ          ZX
  --------------------------------------------------------------------------------------
  Alpha Z   107.79761   107.79761   107.79761
  Ewald   -4167.01907 -3766.59404 -3535.11476    20.09556   -64.36601  -232.67328
  Hartree   472.74691   694.50707   885.60247    -8.43746   -36.22950  -167.74334
  E(xc)   -1468.98731 -1467.05431 -1467.84890    -0.37536    -0.31084    -1.26461
  Local   -2709.64067 -3324.17979 -3745.01126   -16.62347    95.48227   391.85103
  n-local  6053.86340  6047.41270  6055.84234     5.43745     2.93291    10.90292
  augment -1321.92000 -1319.60197 -1321.18009    -1.27591    -1.16174    -2.00147
  Kinetic  3038.86296  3045.30790  3034.40015    -0.69149     5.21722     0.86116
  Fock        0.00000     0.00000     0.00000     0.00000     0.00000     0.00000
  -------------------------------------------------------------------------------------
  Total       5.70383    17.59516    14.48756    -1.87068     1.56432    -0.06759
  in kB       3.43446    10.59459     8.72341    -1.12640     0.94193    -0.04070
  external pressure =        7.58 kB  Pullay stress =        0.00 kB


 VOLUME and BASIS-vectors are now :
 -----------------------------------------------------------------------------
  energy-cutoff  :      250.00
  volume of cell :     2660.84
      direct lattice vectors                 reciprocal lattice vectors
    15.929348143  0.000000000  0.000000000     0.062777208 -0.002375430 -0.008217476
     0.516747587 13.656464493  0.000000000     0.000000000  0.073225394  0.004788230
     1.570839326 -0.799827554 12.231594715     0.000000000  0.000000000  0.081755488

  length of vectors
    15.929348143 13.666237614 12.357959766     0.063357300  0.073381779  0.081755488


 FORCES acting on ions
    electron-ion (+dipol)            ewald-force                    non-local-force                 convergence-correction
 -----------------------------------------------------------------------------------------------
   0.115E+02 0.359E+02 0.111E+02   -.119E+02 -.386E+02 -.129E+02   0.721E+00 0.195E+01 0.190E+01   -.555E-04 0.197E-04 0.630E-04
   -.171E+01 0.224E+02 -.295E+02   -.277E-03 -.235E+02 0.305E+02   0.193E+01 0.161E+01 -.117E+00   -.636E-04 -.574E-04 -.317E-04
   0.452E+01 0.201E+02 0.838E+01   -.238E+01 -.227E+02 -.743E+01   -.141E+01 0.250E+01 -.784E-01   -.567E-04 -.116E-03 0.594E-04
   -.376E+01 -.163E+02 0.279E+02   0.310E+01 0.176E+02 -.282E+02   0.429E+00 -.143E+01 0.627E+00   -.266E-04 0.306E-05 -.102E-03
   -.414E+02 -.725E+01 0.665E+01   0.432E+02 0.798E+01 -.857E+01   -.181E+01 -.121E+01 0.194E+01   -.333E-04 0.610E-04 -.140E-04
   -.244E+02 -.135E+02 0.361E+01   0.253E+02 0.124E+02 -.356E+01   -.130E+01 0.207E+01 -.170E+00   0.405E-04 0.846E-05 -.959E-04
   -.128E+02 0.641E+01 -.150E+02   0.135E+02 -.602E+01 0.151E+02   -.508E+00 -.672E+00 -.747E-01   -.119E-04 -.686E-04 -.716E-04
   -.205E+02 0.173E+02 -.132E+02   0.197E+02 -.170E+02 0.117E+02   0.101E+01 0.385E+00 0.146E+01   -.127E-06 0.444E-04 0.447E-04
   -.519E+01 -.284E+01 0.252E+02   0.505E+01 0.141E+01 -.259E+02   -.473E+00 0.113E+01 -.995E-01   -.126E-04 -.572E-04 0.537E-04
   0.406E+02 0.126E+02 -.153E+02   -.436E+02 -.127E+02 0.164E+02   0.252E+01 0.900E+00 -.841E+00   0.666E-04 -.246E-04 0.559E-04
   -.234E+02 0.221E+02 0.131E+02   0.230E+02 -.249E+02 -.148E+02   0.580E+00 0.160E+01 0.146E+01   0.825E-04 0.590E-04 -.199E-04
   -.197E+02 0.582E+01 0.123E+02   0.200E+02 -.540E+01 -.119E+02   -.171E-01 -.184E+00 -.842E+00   0.241E-04 -.109E-03 0.368E-04
   0.552E+02 -.497E+02 0.695E+01   -.588E+02 0.511E+02 -.820E+01   0.251E+01 -.112E+01 0.173E+01   -.741E-04 0.191E-03 0.137E-04
   0.211E+02 0.261E+02 0.165E+01   -.210E+02 -.242E+02 -.213E+01   -.253E+00 -.131E+01 0.321E+00   -.156E-04 -.150E-04 0.230E-04
   0.900E+01 -.108E+02 0.328E+02   -.837E+01 0.119E+02 -.351E+02   -.541E+00 -.107E+01 0.183E+01   -.878E-04 -.358E-04 -.488E-04
   -.557E+01 0.710E+02 0.781E+01   0.689E+01 -.729E+02 -.750E+01   -.134E+01 0.113E+01 -.561E+00   -.725E-04 -.144E-03 -.709E-04
   -.221E+02 0.118E+02 -.976E+01   0.293E+02 -.147E+02 0.134E+02   -.660E+01 0.295E+01 -.360E+01   -.949E-04 -.117E-03 0.120E-03
   0.150E+02 -.744E+01 -.408E+02   -.105E+02 0.111E+02 0.464E+02   -.448E+01 -.320E+01 -.487E+01   -.138E-03 0.185E-05 -.374E-04
   -.436E+02 -.172E+02 -.128E+01   0.460E+02 0.171E+02 0.558E+01   -.255E+01 0.206E+00 -.432E+01   0.384E-04 -.340E-04 -.323E-04
   -.342E+02 -.122E+02 -.456E+02   0.347E+02 0.104E+02 0.519E+02   -.662E+00 0.214E+01 -.626E+01   0.978E-04 0.674E-04 -.868E-04
   0.230E+01 0.227E+02 0.540E+02   -.298E+01 -.241E+02 -.611E+02   0.680E+00 0.157E+01 0.660E+01   0.250E-04 -.941E-05 0.226E-06
   0.133E+02 -.427E+01 0.108E+02   -.173E+02 0.816E+01 -.109E+02   0.439E+01 -.399E+01 0.208E+00   -.100E-04 0.466E-04 -.269E-04
   0.483E+02 0.202E+02 0.143E+02   -.527E+02 -.238E+02 -.196E+02   0.425E+01 0.332E+01 0.600E+01   0.669E-04 0.357E-05 -.625E-04
   0.269E+02 0.523E+02 0.290E+01   -.303E+02 -.588E+02 -.253E+01   0.332E+01 0.663E+01 -.957E+00   0.558E-04 -.125E-03 -.147E-04
   -.258E+02 -.609E+01 0.467E+01   0.309E+02 0.252E+01 -.111E+02   -.462E+01 0.250E+01 0.632E+01   -.489E-04 0.926E-05 0.232E-04
   0.452E+01 -.424E+02 0.159E+02   -.286E+01 0.471E+02 -.193E+02   -.137E+01 -.442E+01 0.296E+01   0.221E-04 0.160E-03 0.634E-04
   -.146E+02 -.163E+02 -.220E+02   0.189E+02 0.184E+02 0.259E+02   -.442E+01 -.257E+01 -.435E+01   -.939E-04 0.148E-03 0.137E-03
   -.104E+02 0.880E+01 0.193E+01   0.101E+02 -.105E+02 0.334E+01   0.833E+00 0.164E+01 -.596E+01   0.162E-04 0.346E-04 0.818E-04
   0.874E+00 -.110E+02 -.240E+02   0.256E+01 0.143E+02 0.247E+02   -.339E+01 -.268E+01 -.124E+01   -.209E-04 -.144E-03 -.434E-05
   -.368E+02 -.240E+02 -.459E+02   0.393E+02 0.247E+02 0.528E+02   -.237E+01 -.984E+00 -.727E+01   0.699E-04 -.850E-05 -.388E-04
   0.467E+02 -.791E+01 -.345E+02   -.512E+02 0.676E+01 0.407E+02   0.477E+01 0.105E+01 -.642E+01   -.774E-04 0.262E-06 -.432E-04
   0.737E+00 0.128E+01 -.676E+01   -.232E+00 0.522E+01 0.981E+01   -.963E+00 -.643E+01 -.306E+01   0.660E-04 0.269E-04 -.507E-04
   -.257E+02 -.190E+02 -.289E+02   0.293E+02 0.206E+02 0.297E+02   -.367E+01 -.218E+01 -.113E+01   -.754E-04 0.853E-04 -.607E-05
   0.288E+02 -.370E+02 0.118E+02   -.278E+02 0.411E+02 -.152E+02   -.784E+00 -.362E+01 0.372E+01   -.205E-03 0.180E-03 0.767E-04
   0.372E+02 0.509E+02 0.411E+02   -.378E+02 -.525E+02 -.453E+02   0.433E+00 0.149E+01 0.407E+01   -.821E-04 -.126E-03 -.672E-04
   -.475E+02 -.572E+02 -.136E+01   0.508E+02 0.615E+02 -.408E+00   -.373E+01 -.401E+01 0.236E+01   0.768E-04 0.591E-04 -.697E-04
   -.762E+02 -.742E+01 -.264E+02   0.799E+02 0.656E+01 0.280E+02   -.376E+01 0.695E+00 -.179E+01   0.121E-03 -.153E-03 -.125E-03
   -.655E+02 0.303E+02 -.381E+02   0.698E+02 -.320E+02 0.409E+02   -.467E+01 0.184E+01 -.294E+01   0.192E-04 0.674E-04 0.137E-03
   0.853E+02 0.371E+01 0.582E+01   -.910E+02 -.335E+01 -.620E+01   0.417E+01 -.675E+00 -.444E+00   -.103E-03 -.205E-03 -.635E-05
   0.302E+02 -.438E+02 -.211E+02   -.325E+02 0.465E+02 0.237E+02   0.285E+01 -.340E+01 -.193E+01   -.931E-04 0.777E-04 0.719E-05
   -.231E+02 -.254E+02 0.118E+02   0.246E+02 0.278E+02 -.147E+02   -.161E+01 -.249E+01 0.314E+01   0.105E-03 0.753E-04 0.123E-03
   -.646E+02 -.694E+02 -.429E+02   0.652E+02 0.745E+02 0.453E+02   -.326E+00 -.503E+01 -.174E+01   0.203E-03 -.578E-04 -.747E-04
   0.433E+02 -.699E+02 0.559E+01   -.463E+02 0.691E+02 -.479E+01   0.319E+01 0.183E+01 -.199E+01   -.703E-04 0.372E-03 0.204E-04
   0.190E+02 0.427E+02 0.271E+02   -.216E+02 -.465E+02 -.290E+02   0.255E+01 0.340E+01 0.175E+01   0.147E-04 -.583E-04 -.458E-04
   -.465E+01 0.348E+02 -.399E+02   0.314E+01 -.384E+02 0.402E+02   0.230E+01 0.399E+01 0.160E+00   0.755E-05 0.106E-03 0.458E-04
   -.284E+02 0.246E+02 -.543E+02   0.312E+02 -.255E+02 0.568E+02   -.296E+01 0.368E+00 -.252E+01   -.462E-04 -.135E-03 -.243E-04
   -.208E+02 0.545E+01 -.243E+02   0.262E+02 -.274E+01 0.263E+02   -.470E+01 -.302E+01 -.148E+01   0.499E-05 -.127E-03 -.124E-04
   -.464E+02 -.287E+01 -.444E+02   0.502E+02 0.333E+01 0.471E+02   -.380E+01 -.569E+00 -.232E+01   0.191E-05 -.455E-04 -.271E-04
   0.151E+02 0.948E+01 0.117E+01   -.173E+02 -.655E+01 -.249E+01   0.245E+01 -.337E+01 0.157E+01   0.149E-03 0.229E-04 -.102E-03
   0.741E+02 0.242E+02 -.183E+02   -.788E+02 -.260E+02 0.173E+02   0.393E+01 0.208E+01 0.130E+01   -.950E-04 -.119E-03 -.738E-04
   0.155E+02 -.745E+01 0.160E+02   -.176E+02 0.470E+01 -.170E+02   0.238E+01 0.257E+01 0.758E+00   -.899E-04 0.677E-04 -.133E-03
   0.751E+02 0.228E+02 0.569E+02   -.798E+02 -.232E+02 -.606E+02   0.414E+01 0.616E+00 0.259E+01   -.177E-03 -.687E-04 -.763E-04
   0.604E+02 0.103E+02 0.261E+02   -.651E+02 -.940E+01 -.279E+02   0.442E+01 -.122E+01 0.188E+01   -.228E-04 0.110E-03 0.254E-04
   -.122E+02 -.311E+02 0.302E+02   0.116E+02 0.312E+02 -.339E+02   0.103E+01 0.116E+00 0.399E+01   -.209E-05 0.174E-03 0.181E-04
   -.236E+02 0.277E+02 0.114E+02   0.245E+02 -.273E+02 -.159E+02   -.885E+00 -.314E+00 0.471E+01   -.552E-04 -.198E-03 0.451E-04
   0.941E+01 -.409E+02 0.191E+02   -.110E+02 0.441E+02 -.225E+02   0.147E+01 -.298E+01 0.308E+01   0.396E-04 -.118E-03 0.559E-04
   0.189E+02 0.336E+01 0.473E+02   -.244E+02 -.428E+01 -.503E+02   0.533E+01 0.766E+00 0.339E+01   0.705E-04 0.381E-04 0.556E-04
   -.194E+02 0.171E+02 -.139E+02   0.227E+02 -.194E+02 0.158E+02   -.329E+01 0.255E+01 -.157E+01   -.189E-04 0.148E-03 -.441E-04
   0.747E+02 -.369E+01 0.653E+01   -.780E+02 0.687E+01 -.597E+01   0.344E+01 -.361E+01 -.973E+00   -.208E-05 -.157E-03 0.506E-05
   0.296E+01 0.421E+02 -.139E+02   0.121E+01 -.410E+02 0.166E+02   -.408E+01 -.145E+01 -.294E+01   -.976E-04 -.821E-04 0.455E-04
   0.162E+02 -.208E+02 0.104E+02   -.170E+02 0.194E+02 -.143E+02   0.941E+00 0.151E+01 0.374E+01   0.224E-04 0.223E-03 0.167E-04
   -.595E+02 -.475E+02 0.209E+02   0.618E+02 0.520E+02 -.219E+02   -.165E+01 -.428E+01 0.155E+01   0.237E-04 -.719E-04 0.208E-05
   -.593E+01 -.273E+02 -.505E+02   0.411E+01 0.295E+02 0.550E+02   0.177E+01 -.203E+01 -.332E+01   0.317E-04 0.134E-03 -.427E-04
   0.414E+02 -.428E+02 -.418E+02   -.464E+02 0.459E+02 0.435E+02   0.400E+01 -.263E+01 -.122E+01   0.490E-04 -.152E-03 0.129E-03
   0.976E+01 0.442E+02 -.105E+02   -.779E+01 -.450E+02 0.159E+02   -.207E+01 0.217E+00 -.492E+01   -.993E-04 0.671E-04 -.157E-03
   0.407E+02 -.214E+02 0.599E+02   -.431E+02 0.209E+02 -.618E+02   0.321E+01 0.120E+01 0.162E+01   0.332E-04 -.777E-04 -.737E-04
   0.240E+01 0.736E+02 0.665E+01   -.373E+01 -.795E+02 -.676E+01   0.156E+01 0.579E+01 0.718E-01   0.408E-04 -.301E-04 0.527E-04
   -.302E+02 -.199E+02 0.592E+02   0.318E+02 0.185E+02 -.619E+02   -.211E+01 0.200E+01 0.297E+01   0.492E-04 0.122E-03 -.176E-04
   0.268E+01 0.210E+02 0.328E+02   -.238E+01 -.221E+02 -.362E+02   -.676E-01 0.146E+01 0.324E+01   0.324E-04 0.111E-03 0.585E-04
   -.208E+02 -.557E+02 0.327E+02   0.215E+02 0.604E+02 -.339E+02   -.611E+00 -.517E+01 0.132E+01   0.352E-05 -.127E-03 0.104E-03
   -.512E+02 0.521E+02 -.129E+02   0.550E+02 -.536E+02 0.165E+02   -.434E+01 0.103E+01 -.373E+01   0.244E-04 0.134E-03 0.155E-03
   -.238E+02 0.115E+02 -.979E+01   0.275E+02 -.145E+02 0.127E+02   -.394E+01 0.353E+01 -.344E+01   0.331E-04 0.218E-04 -.365E-04
 -----------------------------------------------------------------------------------------------
   0.860E+01 0.897E+01 0.515E+01   -.711E-13 0.147E-12 -.142E-12   -.860E+01 -.897E+01 -.516E+01   -.502E-03 0.105E-03 -.114E-03
 
 
 POSITION                                       TOTAL-FORCE (eV/Angst)
 -----------------------------------------------------------------------------------
      2.10704     11.06090      5.87973         0.264642     -0.748309      0.091096
      2.80488      9.34374      2.11853         0.218781      0.525203      0.826121
      6.85415      4.94006      5.84604         0.734396     -0.119164      0.870517
      8.47351     10.84900      9.52775        -0.227434     -0.114464      0.306288
      7.57089     13.51410      0.54061         0.060688     -0.475727      0.018877
     10.20620      5.80158     11.39130        -0.374373      0.931295     -0.119148
      7.29281      8.61755     12.10740         0.260536     -0.282746      0.029086
      5.24707     11.81600      3.29620         0.133797      0.728182     -0.027355
      8.76904      5.83824      7.80693        -0.616383     -0.304153     -0.728745
     10.74830      0.74176      3.12264        -0.528856      0.770685      0.174459
     11.57810      3.77395     11.19640         0.235975     -1.233107     -0.226898
     15.83815      5.66269      5.87530         0.302271      0.230079     -0.465734
      3.43547      1.06818      0.62366        -1.021959      0.246508      0.477703
     16.14750     12.21670      9.26093        -0.123369      0.636456     -0.164365
      2.84074     10.55130     12.16740         0.093216      0.039089     -0.461972
      1.12473      7.46920      1.48313        -0.016095     -0.774438     -0.248280
      2.52411      7.64257      7.85602         0.678706      0.089375      0.075406
     15.45050      9.41642      3.67288         0.018211      0.471683      0.761377
     11.80520      5.01674      8.54992        -0.234686      0.055421     -0.021662
     15.59710      2.24253     12.19010        -0.157676      0.310302     -0.003754
      9.81193      3.32628      7.12082        -0.000457      0.206509     -0.476856
      9.00838     -0.52913      8.20921         0.377241     -0.098620      0.086736
     12.66820     10.24430      3.37904        -0.200895     -0.309754      0.723790
     12.73420     12.59850      0.46696        -0.059088      0.106582     -0.594388
     17.07870      4.41455      8.92023         0.478927     -1.059026     -0.069474
      2.26040      0.59706      6.54025         0.291953      0.308457     -0.409904
      6.03113      2.12198      3.71318        -0.124040     -0.444088     -0.467595
     13.26870      2.88586      6.35351         0.546677     -0.054665     -0.685459
      7.13984      6.32689      2.67005         0.044630      0.673147     -0.594704
     10.78580      5.83852      2.25386         0.213250     -0.274978     -0.367256
      5.70719      3.17233      9.46132         0.260936     -0.104858     -0.145013
     11.86900      0.02809      9.30223        -0.457396      0.060245     -0.007531
     16.35683     -0.78966     12.12040        -0.008931     -0.593356     -0.277398
      5.71476      2.44510      0.80312         0.197801      0.547639      0.317388
      4.50819      8.14618     11.69110        -0.149471     -0.178469     -0.118228
     14.02170      4.76603     11.96170        -0.436538      0.324691      0.596429
     10.12470     10.15700     11.55180        -0.117270     -0.159942     -0.236321
      7.90378     12.94190      3.27664        -0.411865      0.109023     -0.137761
      5.01407      5.20198      4.12303        -1.470505     -0.318767     -0.820383
      1.73866     12.13430      2.45205         0.526315     -0.691832      0.624977
     12.41570      2.95184      3.53866        -0.091786     -0.099962      0.156017
      9.51233      8.20144      1.01513         0.328563      0.100625      0.619320
      3.41491      0.66196      3.54694         0.245039      1.046808     -1.186334
     14.71750      6.72926      3.32100        -0.126843     -0.393860     -0.220774
      8.59357      3.91620      1.44761         0.789427      0.377123      0.458140
      5.45710      9.11520      2.86597        -0.194428     -0.541179      0.002916
     13.50830     12.98270      3.27529         0.722181     -0.314308      0.517118
      1.92861      4.21081     11.61250        -0.055344     -0.103342      0.348120
     10.87760      1.55464      0.29993         0.214790     -0.441611      0.248886
      7.70556      5.55193     12.03320        -0.722583      0.299882      0.285713
      5.04285     12.36510      0.01612         0.376918     -0.173856     -0.285443
     15.35719      9.48162      0.90229        -0.540443      0.123055     -1.086309
     16.16000     13.02080      6.29336        -0.262611     -0.280042      0.072837
      5.33737      1.71324      7.00034         0.388920      0.156358      0.290835
      2.11265      7.49792      5.11651         0.051669      0.065795      0.245645
     12.99940      5.91113      6.18345        -0.104882      0.189336     -0.340180
      9.87813     10.65940      6.54720        -0.199485     -0.155219      0.423211
      5.49042     -0.27506      9.14203         0.063803      0.311921      0.307606
      5.94132      5.87563      8.46772         0.115781     -0.432183     -0.417312
      2.34314     10.47870      8.71125         0.089737     -0.327158     -0.256509
     15.41600      1.76981      9.35685         0.103440      0.119939     -0.172249
      9.92121      7.58444      9.28077         0.672054      0.254661      0.549271
      2.62077      0.35447      9.31212        -0.045833      0.103538      1.160235
     15.91490      6.88483      8.65280        -1.019608      0.520907      0.499771
      8.66094      2.96474      9.61872        -0.104708     -0.571495      0.490698
      6.69223      8.74365      9.27198         0.848233      0.752327     -0.296348
     13.50630     11.15380      9.68401         0.228905     -0.153563     -0.041411
     16.15091      2.82622      5.47581        -0.490467      0.626834      0.215183
     11.26810      0.37034      6.47399         0.237322      0.340606     -0.207915
      8.28152      7.35236      5.50348         0.106173     -0.466427      0.110476
      4.83973     12.01300      6.08136        -0.562523     -0.493627     -0.085476
     12.40660      9.46401      6.24071        -0.263074      0.528007     -0.509805
 -----------------------------------------------------------------------------------
    total drift:                               -0.005513     -0.001252     -0.009185


--------------------------------------------------------------------------------------------------------



  FREE ENERGIE OF THE ION-ELECTRON SYSTEM (eV)
  ---------------------------------------------------
  free  energy   TOTEN  =      -255.88758621 eV

  energy  without entropy=     -255.88529426  energy(sigma->0) =     -255.88644024
 


--------------------------------------------------------------------------------------------------------


    POTLOK:  cpu time    0.2144: real time    0.2166


--------------------------------------------------------------------------------------------------------


     LOOP+:  cpu time   65.6447: real time   72.8584
    4ORBIT:  cpu time    0.0000: real time    0.0000

 total amount of memory used by VASP MPI-rank0    84873. kBytes
=======================================================================

   base      :      30000. kBytes
   nonlr-proj:       5583. kBytes
   fftplans  :       9446. kBytes
   grid      :      16550. kBytes
   one-center:        146. kBytes
   wavefun   :      23148. kBytes
 
  
  
 General timing and accounting informations for this job:
 ========================================================
  
                  Total CPU time used (sec):       74.027
                            User time (sec):       70.175
                          System time (sec):        3.852
                         Elapsed time (sec):       82.771
  
                   Maximum memory used (kb):      746584.
                   Average memory used (kb):           0.
  
                          Minor page faults:        40217
                          Major page faults:            0
                 Voluntary context switches:         1929
